7
 energy: -24.299783608761 gnorm: 0.000922690488 xtb: 6.7.1 (edcfbbe)
O           -1.78427004735815       -0.28471247942087        0.57485467262405
S           -0.64677248358080        0.23247670037294       -0.14662625580092
O           -0.95764936982348        0.72802088029547       -1.46560759596360
O            0.19269968025869        1.14217905106904        0.64496384924957
O            0.33987281330553       -1.09617864492681       -0.40636461148908
O            1.56172433787239       -0.81690395637462        0.22720748968212
H            1.29439506932578        0.09511844898476        0.57157245169775
