[Molden Format]
[Title]
[Atoms] AU
O      1     8  0.37159284652676E+01  0.42140857831974E+01 -0.15440896201577E+01
C      2     6  0.29711146827320E+01  0.22222721300998E+01 -0.76844838712773E+00
C      3     6  0.35834233074628E+00  0.12454838676853E+01 -0.48987346516679E+00
C      4     6 -0.19247412401240E+01  0.23702813255976E+01 -0.10503464555257E+01
C      5     6 -0.41133295823541E+01  0.98522418627139E+00 -0.58665683594583E+00
C      6     6 -0.40006938899171E+01 -0.14375031460860E+01  0.40292235956259E+00
C      7     6 -0.16949660777515E+01 -0.25720458077460E+01  0.96838021607786E+00
C      8     6  0.47199883702739E+00 -0.11992008191118E+01  0.50867437639219E+00
C      9     6  0.31618539302555E+01 -0.18804177856619E+01  0.90732428575589E+00
O     10     8  0.40875425168460E+01 -0.37791169531961E+01  0.17207924769359E+01
N     11     7  0.44879771033432E+01  0.25016238106934E+00  0.10162780038838E+00
Cl    12    17  0.77296942959193E+01  0.43085680654118E+00  0.17503304281092E+00
H     13     1 -0.19976224656134E+01  0.42563769426768E+01 -0.18200645994792E+01
H     14     1 -0.59297399145201E+01  0.18144591938891E+01 -0.10058899141094E+01
H     15     1 -0.57308092186831E+01 -0.24644227757258E+01  0.74184805479279E+00
H     16     1 -0.15925497731737E+01 -0.44564953295004E+01  0.17387666647957E+01
[GTO]
           1 0
 s           4   1.00000000000000     
   69.1379619061966      -0.204787563700778     
   11.9061291327073      -0.249970231368273     
  0.956708277443407       0.400258802406396     
  0.364625204960737       0.159522066676936     
 p           4   1.00000000000000     
   8.21241932577816        1.13215567991868     
   2.12935769970981        1.04768407822548     
  0.750664482023609       0.549565082171590     
  0.298852465432831       8.290848659276662E-002
 
           2 0
 s           4   1.00000000000000     
   51.0493630955799      -0.163120632101274     
   8.79112274068875      -0.199110245810007     
  0.706404222589298       0.318820477536558     
  0.269228134134116       0.127065041842404     
 p           4   1.00000000000000     
   5.82636561408000       0.737164515452096     
   1.51068960187200       0.682163716148503     
  0.532564832880000       0.357830539292537     
  0.212023236906000       5.398303027584788E-002
 
           3 0
 s           4   1.00000000000000     
   51.0493630955799      -0.163120632101274     
   8.79112274068875      -0.199110245810007     
  0.706404222589298       0.318820477536558     
  0.269228134134116       0.127065041842404     
 p           4   1.00000000000000     
   5.82636561408000       0.737164515452096     
   1.51068960187200       0.682163716148503     
  0.532564832880000       0.357830539292537     
  0.212023236906000       5.398303027584788E-002
 
           4 0
 s           4   1.00000000000000     
   51.0493630955799      -0.163120632101274     
   8.79112274068875      -0.199110245810007     
  0.706404222589298       0.318820477536558     
  0.269228134134116       0.127065041842404     
 p           4   1.00000000000000     
   5.82636561408000       0.737164515452096     
   1.51068960187200       0.682163716148503     
  0.532564832880000       0.357830539292537     
  0.212023236906000       5.398303027584788E-002
 
           5 0
 s           4   1.00000000000000     
   51.0493630955799      -0.163120632101274     
   8.79112274068875      -0.199110245810007     
  0.706404222589298       0.318820477536558     
  0.269228134134116       0.127065041842404     
 p           4   1.00000000000000     
   5.82636561408000       0.737164515452096     
   1.51068960187200       0.682163716148503     
  0.532564832880000       0.357830539292537     
  0.212023236906000       5.398303027584788E-002
 
           6 0
 s           4   1.00000000000000     
   51.0493630955799      -0.163120632101274     
   8.79112274068875      -0.199110245810007     
  0.706404222589298       0.318820477536558     
  0.269228134134116       0.127065041842404     
 p           4   1.00000000000000     
   5.82636561408000       0.737164515452096     
   1.51068960187200       0.682163716148503     
  0.532564832880000       0.357830539292537     
  0.212023236906000       5.398303027584788E-002
 
           7 0
 s           4   1.00000000000000     
   51.0493630955799      -0.163120632101274     
   8.79112274068875      -0.199110245810007     
  0.706404222589298       0.318820477536558     
  0.269228134134116       0.127065041842404     
 p           4   1.00000000000000     
   5.82636561408000       0.737164515452096     
   1.51068960187200       0.682163716148503     
  0.532564832880000       0.357830539292537     
  0.212023236906000       5.398303027584788E-002
 
           8 0
 s           4   1.00000000000000     
   51.0493630955799      -0.163120632101274     
   8.79112274068875      -0.199110245810007     
  0.706404222589298       0.318820477536558     
  0.269228134134116       0.127065041842404     
 p           4   1.00000000000000     
   5.82636561408000       0.737164515452096     
   1.51068960187200       0.682163716148503     
  0.532564832880000       0.357830539292537     
  0.212023236906000       5.398303027584788E-002
 
           9 0
 s           4   1.00000000000000     
   51.0493630955799      -0.163120632101274     
   8.79112274068875      -0.199110245810007     
  0.706404222589298       0.318820477536558     
  0.269228134134116       0.127065041842404     
 p           4   1.00000000000000     
   5.82636561408000       0.737164515452096     
   1.51068960187200       0.682163716148503     
  0.532564832880000       0.357830539292537     
  0.212023236906000       5.398303027584788E-002
 
          10 0
 s           4   1.00000000000000     
   69.1379619061966      -0.204787563700778     
   11.9061291327073      -0.249970231368273     
  0.956708277443407       0.400258802406396     
  0.364625204960737       0.159522066676936     
 p           4   1.00000000000000     
   8.21241932577816        1.13215567991868     
   2.12935769970981        1.04768407822548     
  0.750664482023609       0.549565082171590     
  0.298852465432831       8.290848659276662E-002
 
          11 0
 s           4   1.00000000000000     
   63.5940244669410      -0.192343884147216     
   10.9514172315237      -0.234781079249537     
  0.879993102573770       0.375937539017009     
  0.335387152965211       0.149828892718628     
 p           4   1.00000000000000     
   7.29650404814951       0.976586663156674     
   1.89187454507126       0.903722267303458     
  0.666944321108241       0.474049584615364     
  0.265522026741309       7.151606771501186E-002
 
          12 0
 s           4   1.00000000000000     
   9.34674866189868      -0.125552785052236     
   2.63274953955161      -0.254029831967196     
  0.472092932487140       0.305184566430756     
  0.232271649766237       8.559661830788402E-002
 p           4   1.00000000000000     
   8.96653868620652      -0.317209215069455     
  0.926601749794952       0.357031126383567     
  0.418792332287928       0.280771537007085     
  0.202453454537036       4.152131922185704E-002
 d           3   1.00000000000000     
   3.20597745654841        2.13231494102881     
   1.00523897559031       0.971375176087545     
  0.391565355448865       0.129419082352652     
 
          13 0
 s           3   1.00000000000000     
   3.37022769753360       0.273591105889083     
  0.613891182214980       0.264605406538605     
  0.166142911484160       8.246594753408230E-002
 
          14 0
 s           3   1.00000000000000     
   3.37022769753360       0.273591105889083     
  0.613891182214980       0.264605406538605     
  0.166142911484160       8.246594753408230E-002
 
          15 0
 s           3   1.00000000000000     
   3.37022769753360       0.273591105889083     
  0.613891182214980       0.264605406538605     
  0.166142911484160       8.246594753408230E-002
 
          16 0
 s           3   1.00000000000000     
   3.37022769753360       0.273591105889083     
  0.613891182214980       0.264605406538605     
  0.166142911484160       8.246594753408230E-002
 
[MO]
Sym=     1a
Ene=   -1.07964565507395     
Spin= Alpha
Occup=     2.00000000
           1  4.739581731271416E-004
           2 -5.005726778904684E-004
           3  5.897263766210616E-004
           4 -2.623094361196391E-004
           5 -2.147804629588329E-003
           6 -4.011430618415355E-003
           7  3.116003514292874E-003
           8 -1.447889491191559E-003
           9 -3.716413482921924E-004
          10 -8.474960026824200E-004
          11 -2.338611229244692E-005
          12 -2.887974907322046E-005
          13 -8.443077970674106E-005
          14 -1.409932971482532E-004
          15  6.221035600363460E-005
          16 -3.172870202603454E-005
          17 -1.747148016407768E-005
          18 -3.068238771487963E-005
          19 -2.643069410395786E-006
          20 -3.211667133832018E-007
          21 -1.746906366595408E-005
          22 -3.076334266987464E-005
          23 -8.027015531884468E-007
          24 -1.072192131546288E-006
          25 -8.442964446424080E-005
          26 -1.345187070838955E-004
          27 -7.773062406498289E-005
          28  2.543094766759682E-005
          29 -3.716316996634546E-004
          30 -8.452950396543935E-004
          31 -7.097225444719618E-005
          32 -9.443713361704034E-006
          33 -2.147803577093310E-003
          34 -3.701709778870148E-003
          35 -3.545938453860708E-003
          36  1.273227830095488E-003
          37  4.739583158286240E-004
          38 -4.432924175086637E-004
          39 -6.423378970412226E-004
          40  2.409363007154320E-004
          41 -3.093459333834715E-002
          42 -7.912770542047103E-002
          43 -4.410604798301258E-003
          44 -1.791761751228820E-003
          45 -0.976869167084956     
          46  6.591170070782933E-003
          47  3.674024744922920E-004
          48  1.492580042197418E-004
          49  3.513651411163043E-003
          50 -1.131367034809032E-003
          51 -2.382284376354011E-003
          52  3.158219845349101E-004
          53  1.931276355176871E-004
          54 -6.901582766592833E-004
          55 -8.176996599786327E-005
          56 -9.636412034995621E-006
          57 -9.639554869614577E-006
          58 -8.179875337758196E-005
Sym=     2a
Ene=  -0.744417023987399     
Spin= Alpha
Occup=     2.00000000
           1  0.397481464236609     
           2 -4.853812529334543E-002
           3 -0.137232724453060     
           4  5.356612565201959E-002
           5  0.289992946773179     
           6  5.733327208090287E-002
           7  0.124769257599063     
           8 -4.810336245825748E-002
           9  3.971131371242945E-002
          10  3.100905733900678E-002
          11  2.890529178620137E-002
          12 -1.034118277298328E-002
          13  7.718834450711750E-003
          14  9.051039896203088E-003
          15  1.690839484957884E-004
          16  3.410724545843606E-004
          17 -2.784067858051534E-004
          18  6.266456684836664E-004
          19  1.250404963769911E-004
          20 -2.242205197931689E-005
          21  2.783911028737436E-004
          22 -6.350544153884010E-004
          23  5.464088101096291E-005
          24 -5.100514791590812E-005
          25 -7.718878980670280E-003
          26 -9.019975416948356E-003
          27 -8.382364518291803E-004
          28 -6.810507960848849E-005
          29 -3.971161435815069E-002
          30 -3.352967988528183E-002
          31  2.530786358738726E-002
          32 -1.180262402776436E-002
          33 -0.289994040637862     
          34 -6.860844128821181E-002
          35  0.117749425998166     
          36 -5.095531441046336E-002
          37 -0.397482713717776     
          38  6.101458902609204E-002
          39 -0.131126682173416     
          40  5.604703259168491E-002
          41 -3.311901733031202E-007
          42 -6.465781317514340E-003
          43  0.139078867837921     
          44 -5.680777542128801E-002
          45  2.282215182049250E-008
          46 -8.212192905420753E-004
          47  1.766480042978598E-002
          48 -7.215315474962567E-003
          49 -4.809299216995560E-005
          50  5.765449478633774E-005
          51 -9.561502616382132E-006
          52  5.955923030144188E-004
          53 -2.445308422837877E-004
          54 -7.388796527617835E-008
          55  1.146677503891518E-003
          56 -2.428342254421155E-005
          57  2.429168969157705E-005
          58 -1.146681479409738E-003
Sym=     3a
Ene=  -0.742457356078540     
Spin= Alpha
Occup=     2.00000000
           1  0.352982405501926     
           2 -4.777452346746893E-002
           3 -0.132298865289732     
           4  5.159610050071183E-002
           5  0.327521009379693     
           6  4.237237338839491E-002
           7  5.981917409009444E-002
           8 -2.238839831401765E-002
           9  9.232938469814504E-002
          10  6.073871692305714E-002
          11  1.179348817308463E-003
          12  2.271906533484296E-003
          13  8.920790987595503E-003
          14  1.442045219509515E-002
          15 -3.235882037895305E-003
          16  1.968235130646114E-003
          17 -1.691069032870510E-003
          18  1.523358747437366E-003
          19 -1.110197841955348E-005
          20  7.362479376813995E-005
          21 -1.691099284122193E-003
          22  1.514408805825675E-003
          23  1.806346701406115E-004
          24 -4.733384493904408E-006
          25  8.920732720997682E-003
          26  1.404578826219207E-002
          27  4.822600605549896E-003
          28 -1.323610708651227E-003
          29  9.232924674945805E-002
          30  6.053399642960133E-002
          31  5.580554105264278E-003
          32  4.742141595127325E-004
          33  0.327520020084445     
          34  4.770083487412217E-002
          35 -5.479805308081164E-002
          36  2.442787596259192E-002
          37  0.352981057138871     
          38 -5.979712037709824E-002
          39  0.126302297625173     
          40 -5.403176915905786E-002
          41  0.209956305608359     
          42 -0.109071519983775     
          43 -6.079488822309425E-003
          44 -2.470048390893126E-003
          45 -1.211371087082237E-002
          46 -2.361694582275357E-002
          47 -1.316395449231178E-003
          48 -5.348093356857644E-004
          49  4.960720079653451E-003
          50 -2.346155503114836E-003
          51 -2.614564576538615E-003
          52  4.749677356993451E-004
          53  2.060019190020550E-004
          54 -1.296252100955554E-004
          55  1.378441186426130E-003
          56 -1.681151779380780E-004
          57 -1.681259258833879E-004
          58  1.378436031688217E-003
Sym=     4a
Ene=  -0.722651126554838     
Spin= Alpha
Occup=     2.00000000
           1  0.299818752059438     
           2 -2.124289662986848E-002
           3 -1.440735961928825E-002
           4  4.892386939289122E-003
           5 -9.886339125504560E-002
           6  3.820095885473066E-002
           7  0.234540904587357     
           8 -9.357576868778265E-002
           9 -0.187808029660926     
          10 -5.698279042760235E-002
          11  5.790463001256433E-002
          12 -2.611062475853928E-002
          13 -3.567173629695049E-002
          14 -2.309065459439350E-002
          15  2.107768905059282E-002
          16 -9.610691860114219E-003
          17 -1.446000324329019E-002
          18 -1.184214001230082E-002
          19  2.816634143488874E-003
          20 -1.681072146754769E-003
          21 -1.445991584163437E-002
          22 -1.151972190260508E-002
          23 -4.119224022189259E-003
          24  1.151897751559028E-003
          25 -3.567167111028427E-002
          26 -2.101653151925831E-002
          27 -2.353625187220781E-002
          28  8.611909954616194E-003
          29 -0.187808032571377     
          30 -5.131802971035623E-002
          31 -6.394139150193404E-002
          32  2.365818222811787E-002
          33 -9.886343388994381E-002
          34  5.975530156440669E-002
          35 -0.229080808041988     
          36  9.579383278927064E-002
          37  0.299818724406669     
          38 -2.246926964561477E-002
          39  1.197077846383437E-002
          40 -5.882214218086101E-003
          41 -0.334087294081903     
          42  0.189233909192183     
          43  1.054806325037925E-002
          44  4.285177488210518E-003
          45  6.904404199930246E-004
          46  2.283878374214296E-002
          47  1.273080490459578E-003
          48  5.171796186485346E-004
          49 -6.754731950861239E-003
          50  3.338918895642703E-003
          51  3.415813055218535E-003
          52 -6.523384457299942E-004
          53 -2.676560545958532E-004
          54  1.372863939328863E-005
          55 -3.124049307278286E-003
          56 -8.529411596663844E-004
          57 -8.529193488165708E-004
          58 -3.124039328266283E-003
Sym=     5a
Ene=  -0.692773921611860     
Spin= Alpha
Occup=     2.00000000
           1  5.458485504713308E-002
           2 -4.482231993914879E-002
           3  1.826903715089230E-002
           4 -9.453776306762234E-003
           5 -2.204876009767658E-002
           6 -0.113381834369840     
           7  6.580814954966863E-002
           8 -3.187682287015755E-002
           9  0.279691379045672     
          10 -0.101947769006455     
          11 -4.179824396004535E-002
          12  1.236709545393464E-002
          13  0.241342376682781     
          14  2.660010004741332E-002
          15 -8.877951383881556E-002
          16  3.728050199270374E-002
          17  0.199930426005749     
          18  8.123805540560776E-002
          19 -2.894248209085698E-002
          20  1.544025771341489E-002
          21  0.199930573438458     
          22  7.813393458829425E-002
          23  3.782556613069409E-002
          24 -1.183161726235803E-002
          25  0.241342554570078     
          26  1.822894284257013E-002
          27  9.127833813048505E-002
          28 -3.626538893442521E-002
          29  0.279691459255126     
          30 -0.105297243022482     
          31  3.024627812187804E-002
          32 -1.705996889609408E-002
          33 -2.204873467968654E-002
          34 -0.106692525306079     
          35 -7.807517162504256E-002
          36  2.689329193622644E-002
          37  5.458472030893129E-002
          38 -4.289628303341919E-002
          39 -2.315851189613505E-002
          40  7.467406981795040E-003
          41 -0.251879545142165     
          42  2.796109399984236E-002
          43  1.558533753072108E-003
          44  6.332324358585806E-004
          45  4.540888612072577E-002
          46  6.490704491213575E-002
          47  3.617795985370962E-003
          48  1.469743364282541E-003
          49 -5.590311383829463E-003
          50  2.845668420968144E-003
          51  2.744642962861319E-003
          52 -5.430733824881542E-004
          53 -2.141826620979106E-004
          54 -8.152240999185658E-005
          55  3.646716124510430E-002
          56  2.801728559427927E-002
          57  2.801733120770745E-002
          58  3.646719773051649E-002
Sym=     6a
Ene=  -0.666044125608902     
Spin= Alpha
Occup=     2.00000000
           1 -1.561779298080438E-002
           2 -8.754489406402435E-002
           3  1.674706892691518E-002
           4 -1.077060453399459E-002
           5  2.940592571364520E-002
           6 -0.186985275647053     
           7  3.428156213306068E-002
           8 -2.239983176623210E-002
           9  0.187137633383029     
          10  8.702606904633528E-002
          11 -2.124956649823899E-002
          12  1.257653583066186E-002
          13 -0.103203150568563     
          14  0.119687636024677     
          15  4.519646019512785E-002
          16 -1.294450925885341E-002
          17 -0.313378772184929     
          18 -3.295485977810976E-002
          19  6.348878317590533E-002
          20 -2.729157740045479E-002
          21 -0.313374982122753     
          22 -2.689432800697901E-002
          23 -6.682734513545251E-002
          24  2.593697528482127E-002
          25 -0.103193480849235     
          26  0.123261979088223     
          27 -3.165323324275338E-002
          28  1.844535616354461E-002
          29  0.187146015515096     
          30  8.460471370432023E-002
          31  3.081190822486964E-002
          32 -8.688321839927406E-003
          33  2.941017486517105E-002
          34 -0.182843467738062     
          35 -5.489417297315375E-002
          36  1.402450292079450E-002
          37 -1.562365661677357E-002
          38 -8.554136185690463E-002
          39 -2.639377744846545E-002
          40  6.850719538428720E-003
          41 -0.323715592044752     
          42 -6.711272033767197E-002
          43 -3.741898144916859E-003
          44 -1.519172904627685E-003
          45  9.062386670158246E-002
          46  0.144092468121640     
          47  8.031771815075318E-003
          48  3.262888919469262E-003
          49 -1.032673715236742E-002
          50  5.145234062705322E-003
          51  5.181503089662099E-003
          52 -9.988715929594581E-004
          53 -4.055678081917808E-004
          54 -2.488556741706839E-005
          55 -1.611900483470467E-002
          56 -7.388736179097879E-002
          57 -7.388640499464003E-002
          58 -1.611653033827512E-002
Sym=     7a
Ene=  -0.665763037503963     
Spin= Alpha
Occup=     2.00000000
           1 -0.210041615297568     
           2 -6.324076815542211E-002
           3 -5.109490107429027E-002
           4  1.789813661671853E-002
           5  0.148483444265377     
           6 -0.120705388894130     
           7 -7.814494097896935E-002
           8  2.628711473916097E-002
           9  0.265207379871989     
          10 -2.994400364509350E-002
          11  0.137414906152235     
          12 -5.719493103412780E-002
          13  0.292895014131050     
          14  5.298302651281755E-002
          15 -3.132370134213610E-002
          16  1.512837069503058E-002
          17  0.108743014064052     
          18  5.769247357403014E-002
          19  6.536642962620931E-002
          20 -2.394857346049159E-002
          21 -0.108752897803630     
          22 -6.345725972019663E-002
          23  5.861134929617294E-002
          24 -2.669103180486899E-002
          25 -0.292898111623199     
          26 -4.980017065336770E-002
          27 -3.705407212292377E-002
          28  1.280137547395265E-002
          29 -0.265201305402560     
          30  1.704759371839881E-002
          31  0.140035063418524     
          32 -5.613124598845120E-002
          33 -0.148482629681028     
          34  0.127322905025070     
          35 -6.432124756738149E-002
          36  3.190411533218639E-002
          37  0.210041215596926     
          38  6.764975901960052E-002
          39 -4.379975958043540E-002
          40  2.086236370170095E-002
          41 -5.139491650904220E-006
          42 -4.366325186826270E-003
          43  9.389576487520856E-002
          44 -3.835243829682205E-002
          45  1.430113190473403E-006
          46 -3.950807008081353E-004
          47  8.547334192283372E-003
          48 -3.491124852561545E-003
          49  7.674988006813368E-005
          50 -9.213866717855786E-005
          51  1.538878711042418E-005
          52 -9.527756720386845E-004
          53  3.912021806946758E-004
          54  1.175221622540890E-007
          55  7.509158295902496E-002
          56  2.627104347109123E-002
          57 -2.627337847916442E-002
          58 -7.509206120432815E-002
Sym=     8a
Ene=  -0.656589954301908     
Spin= Alpha
Occup=     2.00000000
           1 -0.316824792994736     
           2  4.935538646273083E-002
           3 -0.137293227014791     
           4  5.802504716278000E-002
           5  0.211948681633062     
           6  0.104211278068964     
           7 -0.173871888023616     
           8  7.537352923308287E-002
           9 -2.634555695134849E-002
          10  9.540104033440730E-002
          11 -2.236924685959499E-002
          12  1.341096877960968E-002
          13 -0.164981861572062     
          14  1.174950592249684E-002
          15  1.682015679719547E-002
          16 -6.302506464669308E-003
          17 -8.775985049088374E-002
          18 -3.551228641653349E-002
          19 -5.140887437185117E-002
          20  1.928168787972317E-002
          21  8.776061499063874E-002
          22  4.009656266144414E-002
          23 -4.719468292602289E-002
          24  2.099366889820835E-002
          25  0.164982271350763     
          26 -1.324906917213139E-002
          27  1.542671931136892E-002
          28 -6.868632515698585E-003
          29  2.634511173326176E-002
          30 -9.283349523850452E-002
          31 -3.286163831444126E-002
          32  9.148536192285409E-003
          33 -0.211948693445170     
          34 -8.754685393290883E-002
          35 -0.184560515115363     
          36  7.103097670920594E-002
          37  0.316824709181199     
          38 -3.636722843633341E-002
          39 -0.142071432444556     
          40  5.608371090576784E-002
          41  4.035890978134200E-007
          42 -1.771445841070022E-002
          43  0.381028458797608     
          44 -0.155633648347025     
          45 -1.021127824670726E-007
          46 -3.253653137505866E-003
          47  6.998009661138339E-002
          48 -2.858384558830068E-002
          49  1.993541789522601E-004
          50 -2.390036954970222E-004
          51  3.964951654476207E-005
          52 -2.469058768940133E-003
          53  1.013739124226389E-003
          54  3.054267029670686E-007
          55 -4.572606949830432E-002
          56 -2.508316891944788E-002
          57  2.508341061182703E-002
          58  4.572618377336386E-002
Sym=     9a
Ene=  -0.630761772021173     
Spin= Alpha
Occup=     2.00000000
           1 -3.352514819619848E-002
           2 -0.160816342753239     
           3  1.937896257679078E-002
           4 -1.515877345296656E-002
           5  5.516090512973731E-002
           6 -0.239307404910442     
           7  4.506233107627919E-002
           8 -2.915044031203052E-002
           9  0.153646082636585     
          10  8.602315947792223E-002
          11  8.736715818665888E-002
          12 -3.160538476148071E-002
          13 -0.168844351827851     
          14  0.175130190853235     
          15  2.392686020019177E-002
          16 -1.790357098824128E-003
          17 -0.231783151711332     
          18 -3.949819813992569E-002
          19 -0.131271762630960     
          20  5.155327839685082E-002
          21  0.231788002077357     
          22  5.146615455868241E-002
          23 -0.126199030621450     
          24  5.361220041893042E-002
          25  0.168841082504960     
          26 -0.176445752207492     
          27  4.329823109769712E-003
          28 -9.751338769849483E-003
          29 -0.153647684013476     
          30 -9.367764706888686E-002
          31  7.735065731950988E-002
          32 -3.567457723866736E-002
          33 -5.515917551869130E-002
          34  0.233888994691273     
          35  7.143875777528737E-002
          36 -1.843510092289455E-002
          37  3.352407178149873E-002
          38  0.158186291598862     
          39  3.716069250864756E-002
          40 -7.935198764116656E-003
          41 -2.225039001411205E-006
          42  8.624957352994929E-003
          43 -0.185558026767477     
          44  7.579266959332664E-002
          45  1.005756238415700E-006
          46  2.572911407251707E-003
          47 -5.529934526080327E-002
          48  2.258756292573560E-002
          49 -1.576998598642130E-004
          50  1.889795938149735E-004
          51 -3.127973395076055E-005
          52  1.951647067851309E-003
          53 -8.011973467656657E-004
          54 -2.410775603038906E-007
          55 -5.093959556580797E-002
          56 -9.450565128855869E-002
          57  9.450771210922328E-002
          58  5.093856101592464E-002
Sym=    10a
Ene=  -0.629181828382839     
Spin= Alpha
Occup=     2.00000000
           1  6.642549309255232E-002
           2  9.142067125306984E-002
           3  2.541125289384453E-002
           4 -6.184923267045543E-003
           5 -8.939224387850475E-002
           6  0.129377067081765     
           7  4.575571710450604E-003
           8  4.000984064434458E-003
           9  8.118411958852216E-002
          10 -0.186574635153586     
          11 -1.145697099930764E-002
          12 -3.795162859361592E-003
          13  0.168626965125448     
          14  0.100158446071301     
          15 -3.966055783176052E-003
          16  6.148249213489576E-003
          17 -0.260632285499569     
          18  0.113781992541200     
          19  0.119123207719638     
          20 -4.325196446838931E-002
          21 -0.260628031587405     
          22  0.124242591641175     
          23 -0.105857651229863     
          24  4.864304762095889E-002
          25  0.168630248601838     
          26  9.926962053735135E-002
          27  1.508251136367348E-002
          28 -1.632489586992512E-003
          29  8.118133117968304E-002
          30 -0.186674484963397     
          31 -9.346577002036215E-003
          32 -4.657291090246551E-003
          33 -8.939322310084145E-002
          34  0.129136976832287     
          35  9.835346481155386E-003
          36  1.852842993408326E-003
          37  6.642586130796700E-002
          38  9.330772022119764E-002
          39 -1.511342841607184E-002
          40  1.036794457567540E-002
          41  0.252818959440564     
          42  0.194097528625805     
          43  1.081755639250832E-002
          44  4.396151555729370E-003
          45 -0.109573602008056     
          46 -0.222582060926800     
          47 -1.240734735339513E-002