[Molden Format]
[Title]
[Atoms] AU
O      1     8  0.20230456024985E+01 -0.38682501766378E+01 -0.17557359101960E+01
C      2     6  0.10932470834902E+01 -0.19912412340536E+01 -0.91059657534013E+00
C      3     6 -0.16636919265704E+01 -0.14672909151066E+01 -0.34695520356034E+00
C      4     6 -0.17504864127799E+01  0.12196575437780E+01  0.69958861799354E+00
C      5     6  0.95979409609577E+00  0.21401502278176E+01  0.69854802861623E+00
O      6     8  0.17642664741946E+01  0.41429472450505E+01  0.13645635556711E+01
N      7     7  0.24038574341279E+01  0.17435401265054E+00 -0.24828262442812E+00
Cl     8    17  0.56320489872737E+01  0.40849743015756E+00 -0.58170613342897E+00
H      9     1 -0.23460284201197E+01 -0.28756010953147E+01  0.99319776443640E+00
H     10     1 -0.27497793329266E+01 -0.16902925615561E+01 -0.20835078092896E+01
H     11     1 -0.24812630823849E+01  0.13108803165685E+01  0.26237960970696E+01
H     12     1 -0.28850105028991E+01  0.24961892066461E+01 -0.45290980754373E+00
[GTO]
           1 0
 s           4   1.00000000000000     
   69.1379619061966      -0.204787563700778     
   11.9061291327073      -0.249970231368273     
  0.956708277443407       0.400258802406396     
  0.364625204960737       0.159522066676936     
 p           4   1.00000000000000     
   8.21241932577816        1.13215567991868     
   2.12935769970981        1.04768407822548     
  0.750664482023609       0.549565082171590     
  0.298852465432831       8.290848659276662E-002
 
           2 0
 s           4   1.00000000000000     
   51.0493630955799      -0.163120632101274     
   8.79112274068875      -0.199110245810007     
  0.706404222589298       0.318820477536558     
  0.269228134134116       0.127065041842404     
 p           4   1.00000000000000     
   5.82636561408000       0.737164515452096     
   1.51068960187200       0.682163716148503     
  0.532564832880000       0.357830539292537     
  0.212023236906000       5.398303027584788E-002
 
           3 0
 s           4   1.00000000000000     
   51.0493630955799      -0.163120632101274     
   8.79112274068875      -0.199110245810007     
  0.706404222589298       0.318820477536558     
  0.269228134134116       0.127065041842404     
 p           4   1.00000000000000     
   5.82636561408000       0.737164515452096     
   1.51068960187200       0.682163716148503     
  0.532564832880000       0.357830539292537     
  0.212023236906000       5.398303027584788E-002
 
           4 0
 s           4   1.00000000000000     
   51.0493630955799      -0.163120632101274     
   8.79112274068875      -0.199110245810007     
  0.706404222589298       0.318820477536558     
  0.269228134134116       0.127065041842404     
 p           4   1.00000000000000     
   5.82636561408000       0.737164515452096     
   1.51068960187200       0.682163716148503     
  0.532564832880000       0.357830539292537     
  0.212023236906000       5.398303027584788E-002
 
           5 0
 s           4   1.00000000000000     
   51.0493630955799      -0.163120632101274     
   8.79112274068875      -0.199110245810007     
  0.706404222589298       0.318820477536558     
  0.269228134134116       0.127065041842404     
 p           4   1.00000000000000     
   5.82636561408000       0.737164515452096     
   1.51068960187200       0.682163716148503     
  0.532564832880000       0.357830539292537     
  0.212023236906000       5.398303027584788E-002
 
           6 0
 s           4   1.00000000000000     
   69.1379619061966      -0.204787563700778     
   11.9061291327073      -0.249970231368273     
  0.956708277443407       0.400258802406396     
  0.364625204960737       0.159522066676936     
 p           4   1.00000000000000     
   8.21241932577816        1.13215567991868     
   2.12935769970981        1.04768407822548     
  0.750664482023609       0.549565082171590     
  0.298852465432831       8.290848659276662E-002
 
           7 0
 s           4   1.00000000000000     
   63.5940244669410      -0.192343884147216     
   10.9514172315237      -0.234781079249537     
  0.879993102573770       0.375937539017009     
  0.335387152965211       0.149828892718628     
 p           4   1.00000000000000     
   7.29650404814951       0.976586663156674     
   1.89187454507126       0.903722267303458     
  0.666944321108241       0.474049584615364     
  0.265522026741309       7.151606771501186E-002
 
           8 0
 s           4   1.00000000000000     
   9.34674866189868      -0.125552785052236     
   2.63274953955161      -0.254029831967196     
  0.472092932487140       0.305184566430756     
  0.232271649766237       8.559661830788402E-002
 p           4   1.00000000000000     
   8.96653868620652      -0.317209215069455     
  0.926601749794952       0.357031126383567     
  0.418792332287928       0.280771537007085     
  0.202453454537036       4.152131922185704E-002
 d           3   1.00000000000000     
   3.20597745654841        2.13231494102881     
   1.00523897559031       0.971375176087545     
  0.391565355448865       0.129419082352652     
 
           9 0
 s           3   1.00000000000000     
   3.37022769753360       0.273591105889083     
  0.613891182214980       0.264605406538605     
  0.166142911484160       8.246594753408230E-002
 
          10 0
 s           3   1.00000000000000     
   3.37022769753360       0.273591105889083     
  0.613891182214980       0.264605406538605     
  0.166142911484160       8.246594753408230E-002
 
          11 0
 s           3   1.00000000000000     
   3.37022769753360       0.273591105889083     
  0.613891182214980       0.264605406538605     
  0.166142911484160       8.246594753408230E-002
 
          12 0
 s           3   1.00000000000000     
   3.37022769753360       0.273591105889083     
  0.613891182214980       0.264605406538605     
  0.166142911484160       8.246594753408230E-002
 
[MO]
Sym=     1a
Ene=   -1.08282862354374     
Spin= Alpha
Occup=     2.00000000
           1  5.639575758497659E-004
           2 -4.917517269620158E-004
           3 -7.039097824787658E-004
           4 -2.066521410536187E-004
           5 -2.297093900120316E-003
           6 -4.127287335114065E-003
           7 -3.799672634100019E-003
           8 -9.222213607740497E-004
           9 -2.607665882235494E-004
          10 -8.399694671391119E-004
          11 -9.117795863273187E-005
          12  7.510103870484246E-005
          13 -2.607665750313034E-004
          14 -8.419195000869861E-004
          15 -3.081097936997463E-005
          16  9.861299150138308E-005
          17 -2.297093833892280E-003
          18 -4.352894086781274E-003
          19  3.184597506015300E-003
          20  1.798097037528031E-003
          21  5.639574254691957E-004
          22 -5.348220799984617E-004
          23  6.294513009980998E-004
          24  3.126817360959044E-004
          25 -3.098403847453672E-002
          26 -7.846124282896685E-002
          27 -5.690859434134990E-003
          28  8.103863305737724E-003
          29 -0.976840719052184     
          30  9.778480101853096E-003
          31  7.092407673077324E-004
          32 -1.009969159176213E-003
          33  3.030495393831142E-003
          34 -8.258393327302767E-004
          35 -2.204656061100866E-003
          36  4.024158345239148E-004
          37 -6.853822537402622E-004
          38  6.989500849146474E-004
          39 -3.003889944318476E-004
          40 -3.003890903457635E-004
          41 -3.003890448196232E-004
          42 -3.003890278297967E-004
Sym=     2a
Ene=  -0.747220421025683     
Spin= Alpha
Occup=     2.00000000
           1  0.387774972488740     
           2 -6.059642854280448E-002
           3  0.131922638312279     
           4  5.877556227311647E-002
           5  0.295365662843601     
           6  7.150067867343625E-002
           7 -0.112132595409596     
           8 -5.258233344487358E-002
           9  3.843051824400198E-002
          10  3.617507895801429E-002
          11 -2.151033804358738E-002
          12 -1.303411274614518E-002
          13 -3.843044238279416E-002
          14 -3.461949391131713E-002
          15 -2.664513168042045E-002
          16 -5.722094611881845E-003
          17 -0.295365332689924     
          18 -6.393905006354078E-002
          19 -0.121956095475030     
          20 -3.859344092526362E-002
          21 -0.387774620997751     
          22  5.181026910825329E-002
          23  0.140075442330812     
          24  4.716561208958047E-002
          25  1.123312329479479E-007
          26  4.931659679582233E-003
          27 -0.152674333379425     
          28 -5.946545965468043E-002
          29 -1.080059241966947E-008
          30  6.376371103283267E-004
          31 -1.974024304591985E-002
          32 -7.688669197121507E-003
          33  2.687480146970589E-005
          34 -6.033981468876065E-005
          35  3.346501321905476E-005
          36 -4.791738866887054E-004
          37 -1.886759001407948E-004
          38  3.603921801710355E-005
          39  5.831289608628423E-003
          40  5.831289612307397E-003
          41 -5.831279732877104E-003
          42 -5.831279868256238E-003
Sym=     3a
Ene=  -0.745194104202139     
Spin= Alpha
Occup=     2.00000000
           1  0.339968886565118     
           2 -5.846046530212203E-002
           3  0.126083504774143     
           4  5.624573209530489E-002
           5  0.331919269344232     
           6  5.217632064564655E-002
           7 -4.545217960833565E-002
           8 -2.435758746642195E-002
           9  8.141428944423242E-002
          10  6.201130566122292E-002
          11  5.944040967424267E-003
          12 -5.847666225525964E-003
          13  8.141432605973907E-002
          14  6.210456336186322E-002
          15  3.058217200596080E-003
          16 -6.971634179502206E-003
          17  0.331919567838759     
          18  4.900293335809013E-002
          19  5.279090510488586E-002
          20  1.390735789165693E-002
          21  0.339969274170611     
          22 -5.006069540029592E-002
          23 -0.133954782787900     
          24 -4.503719419429995E-002
          25  0.234891866002891     
          26 -0.113434734477975     
          27 -8.227447707196512E-003
          28  1.171615395705606E-002
          29 -1.675885027527954E-002
          30 -2.846177697220109E-002
          31 -2.064347655674341E-003
          32  2.939679281698278E-003
          33  5.443339443081843E-003
          34 -2.587377532224248E-003
          35 -2.855961910857595E-003
          36  6.934804542043237E-004
          37 -1.012583273299145E-003
          38  9.355382405678314E-005
          39  1.063808290503853E-002
          40  1.063807656530814E-002
          41  1.063808218124952E-002
          42  1.063808809821349E-002
Sym=     4a
Ene=  -0.723937872855877     
Spin= Alpha
Occup=     2.00000000
           1  0.313449102073739     
           2 -2.921019194547656E-002
           3  1.318797491131334E-002
           4  8.913895900915084E-003
           5 -9.134215663423244E-002
           6  4.674402412706651E-002
           7 -0.241478498637191     
           8 -9.916449846843160E-002
           9 -0.138973510806846     
          10 -5.505482995089882E-002
          11 -5.866700659446773E-002
          12 -1.537689901589615E-002
          13 -0.138973507126178     
          14 -5.857874599762373E-002
          15  5.042506067119432E-002
          16  2.711355073218153E-002
          17 -9.134214327600915E-002
          18  3.096140714053533E-002
          19  0.247114533724275     
          20  9.113871563932897E-002
          21  0.313449103002191     
          22 -2.822363015288510E-002
          23 -1.735370894054442E-002
          24 -2.981858505667751E-003
          25 -0.369920421594605     
          26  0.190455055900563     
          27  1.381388511346844E-002
          28 -1.967115964130366E-002
          29  7.682382444947512E-003
          30  3.096459072261568E-002
          31  2.245889773109353E-003
          32 -3.198177846460436E-003
          33 -7.475620509736867E-003
          34  3.769083823723581E-003
          35  3.706536686013285E-003
          36 -9.466609031293946E-004
          37  1.347944067830796E-003
          38  9.852971335393325E-005
          39 -2.043830329310984E-002
          40 -2.043828665255787E-002
          41 -2.043828553564398E-002
          42 -2.043830302139235E-002
Sym=     5a
Ene=  -0.679527257561634     
Spin= Alpha
Occup=     2.00000000
           1 -1.890257762489454E-003
           2  9.230983833430845E-002
           3  3.463999726650564E-002
           4  1.231546823136169E-003
           5 -2.754825702006748E-002
           6  0.215588178021363     
           7  8.154861892073142E-002
           8  3.125679299388037E-003
           9 -0.338307546122552     
          10 -1.266705364583268E-002
          11 -5.536376920884065E-002
          12 -1.966675095356272E-002
          13 -0.338307543064101     
          14 -1.617623071978157E-002
          15  5.327174219482250E-002
          16  2.264583046427421E-002
          17 -2.754826481452253E-002
          18  0.219836413847571     
          19 -4.996686931026548E-002
          20 -4.809852122400899E-002
          21 -1.890215938976312E-003
          22  9.411097058543784E-002
          23 -2.111870309679328E-002
          24 -2.048600640684616E-002
          25  0.376377853196380     
          26  5.361974733057596E-002
          27  3.889075225949321E-003
          28 -5.538112498690999E-003
          29 -0.100688571982973     
          30 -0.147442142150764     
          31 -1.069410402121979E-002
          32  1.522855053365702E-002
          33  1.092186746051340E-002
          34 -5.534866579716167E-003
          35 -5.387000880797235E-003
          36  1.382319422977503E-003
          37 -1.963754570822864E-003
          38 -1.736741243944372E-004
          39 -9.629140838411678E-002
          40 -9.629140428655959E-002
          41 -9.629140304994518E-002
          42 -9.629140635525703E-002
Sym=     6a
Ene=  -0.663280080327244     
Spin= Alpha
Occup=     2.00000000
           1  0.383118409585671     
           2  1.693506727093949E-002
           3 -0.126756650487624     
           4 -5.105575350987284E-002
           5 -0.252413746262026     
           6  2.290627700908490E-002
           7 -0.189200323677993     
           8 -7.589601831843530E-002
           9 -0.148450884539605     
          10 -6.892637333466903E-002
          11  4.932161224250443E-002
          12  2.804635322672275E-002
          13  0.148450854801207     
          14  6.542520787688849E-002
          15  5.906626266507178E-002
          16  1.416984180735478E-002
          17  0.252413746275406     
          18 -1.060460214888524E-002
          19 -0.191630889735805     
          20 -7.243489247545669E-002
          21 -0.383118430596535     
          22 -8.686044549665185E-003
          23 -0.128614951393282     
          24 -4.840951166170826E-002
          25  1.963557931589493E-008
          26 -1.150063956681246E-002
          27  0.356032655482894     
          28  0.138671883222044     
          29 -1.111653871586906E-010
          30 -1.868783849085694E-003
          31  5.785312395026957E-002
          32  2.253332995585643E-002
          33  1.504991258099656E-004
          34 -3.379276055094709E-004
          35  1.874284796995053E-004
          36 -2.683622035383318E-003
          37 -1.056678766573905E-003
          38  2.018376574313796E-004
          39 -4.659658779558841E-002
          40 -4.659657385975938E-002
          41  4.659656011114102E-002
          42  4.659658113817777E-002
Sym=     7a
Ene=  -0.647660613549221     
Spin= Alpha
Occup=     2.00000000
           1 -9.882221475148507E-003
           2  0.165378153308255     
           3  6.995289070753605E-002
           4  5.247284185722713E-003
           5 -2.945401809771512E-002
           6  0.280982202108000     
           7  0.113459598066195     
           8  6.837873654015700E-003
           9 -0.274475108336736     
          10 -3.427630058877810E-002
          11  0.128659698725170     
          12  5.406451233183747E-002
          13  0.274475139377429     
          14  2.582349484997319E-002
          15  0.133018771040516     
          16  4.785709963236235E-002
          17  2.945400850316997E-002
          18 -0.286981522941167     
          19  7.226465661135527E-002
          20  6.550004873871013E-002
          21  9.882295938981201E-003
          22 -0.169113713602236     
          23  4.569193919185788E-002
          24  3.979534805744975E-002
          25  6.361328338537247E-009
          26  8.454610833142792E-003
          27 -0.261735367274391     
          28 -0.101943972521290     
          29 -2.944650672566368E-009
          30  2.201041234993254E-003
          31 -6.813933508850023E-002
          32 -2.653975654154789E-002
          33 -1.266958366058362E-004
          34  2.844818226664053E-004
          35 -1.577859860605690E-004
          36  2.259189955497289E-003
          37  8.895591889238748E-004
          38 -1.699159486860664E-004
          39 -0.115655526248460     
          40 -0.115655534664469     
          41  0.115655541854356     
          42  0.115655535143676     
Sym=     8a
Ene=  -0.618431440911206     
Spin= Alpha
Occup=     2.00000000
           1 -0.147765004092995     
           2 -0.130670926659406     
           3  6.250368842769212E-002
           4  4.122742613846890E-002
           5  0.151401692820587     
           6 -0.126656597347353     
           7 -8.971474716488178E-004
           8  1.627522522173043E-002
           9 -0.208232550747164     
          10  0.215637166896780     
          11 -9.157881602520297E-002
          12 -6.357863241139028E-002
          13 -0.208232526742934     
          14  0.208726518885658     
          15  0.122358324894537     
          16  1.974818181224845E-002
          17  0.151401677308227     
          18 -0.126122352476068     
          19 -1.743708148250661E-002
          20  9.832987134385280E-003
          21 -0.147765002913837     
          22 -0.126031486774267     
          23 -8.112254123953952E-002
          24 -1.471399115200095E-002
          25 -0.244983477015723     
          26 -0.298518166238707     
          27 -2.165180088723555E-002
          28  3.083239586343378E-002
          29  0.139542539601174     
          30  0.309212611702993     
          31  2.242744181604690E-002
          32 -3.193700835393831E-002
          33 -1.996212220022421E-002
          34  9.867682289317429E-003
          35  1.009443991090678E-002
          36 -2.533096249124127E-003
          37  3.638376405589521E-003
          38  5.589291516780779E-005
          39 -0.114816577428089     
          40 -0.114816600227332     
          41 -0.114816606980265     
          42 -0.114816544822244     
Sym=     9a
Ene=  -0.608190033069884     
Spin= Alpha
Occup=     2.00000000
           1  1.185787430307626E-007
           2  3.113759395812464E-002
           3 -9.141202300427133E-002
           4  0.237277562799888     
           5 -6.708494581430646E-008
           6  4.349547692084169E-002
           7 -0.127691807474032     
           8  0.331449158437724     
           9 -1.531548377536188E-008
          10  2.237643129229232E-002
          11 -6.569166421067077E-002
          12  0.170515760833190     
          13 -3.046961035462061E-008
          14  2.237642533260967E-002
          15 -6.569165250475388E-002
          16  0.170515760927843     
          17  7.727227023460865E-008
          18  4.349516928495545E-002
          19 -0.127691859291340     
          20  0.331449164195806     
          21 -2.008205581834005E-007
          22  3.113723075317765E-002
          23 -9.141215489631119E-002
          24  0.237277541250384     
          25 -7.090717806897711E-008
          26  5.072326311798586E-002
          27 -0.148911465973764     
          28  0.386528547506836     
          29  3.354424204379842E-009
          30  1.389922325820260E-002
          31 -4.080479966135180E-002
          32  0.105916715556039     
          33 -1.593911640431037E-003
          34  3.393979851213575E-004
          35  1.254513655309680E-003
          36  2.634871704099775E-003
          37 -6.917524206094022E-003
          38 -7.876638544195504E-004
          39  8.698129224248087E-002
          40 -8.698123980306106E-002
          41  8.698120653999694E-002
          42 -8.698132045610718E-002
Sym=    10a
Ene=  -0.585710783724992     
Spin= Alpha
Occup=     2.00000000
           1 -0.365883846759504     
           2 -0.230048377738022     
           3  0.246577924138616     
           4  0.125184046169326     
           5  0.109536478588002     
           6 -5.478296755194303E-002
           7 -0.143863824970015     
           8 -4.823467622786894E-002
           9  1.554019146993868E-003
          10  7.639773645909074E-003
          11 -0.155120831587398     
          12 -6.076324334096259E-002
          13  1.554112689918369E-003
          14 -2.394074660531896E-003
          15  0.155501349367181     
          16  6.022145210673890E-002
          17  0.109536434779616     
          18 -6.379942942082450E-002
          19  0.135262952677244     
          20  6.048245472119777E-002
          21 -0.365883805517338     
          22 -0.213080090859188     
          23 -0.278718434101934     
          24 -7.941560078500856E-002
          25  6.169291273167703E-002
          26  0.327781046375392     
          27  2.377422160804661E-002
          28 -3.385488245760204E-002
          29 -0.104595703663364     
          30 -0.307568788279760     
          31 -2.230821696919695E-002
          32  3.176720565340012E-002
          33  1.887081645575347E-002
          34 -9.658238900486388E-003
          35 -9.212577555267082E-003
          36  2.385846479459331E-003
          37 -3.374157921040929E-003
          38 -4.001494176884709E-004
          39  4.413179626580004E-002
          40  4.413178516529963E-002
          41  4.413184377475045E-002
          42  4.413186671513061E-002
Sym=    11a
Ene=  -0.566785393443161     
Spin= Alpha
Occup=     2.00000000
           1 -0.260148590849016     
           2 -0.311935714754340     
           3  0.199828287290349     
           4  0.117919430520108     
           5  0.118309182084679     
           6 -0.109529978157031     
           7 -0.156767662645685     
           8 -4.602155008742360E-002
           9 -0.196325530440840     
          10  0.149555211655265     
          11  8.178987909806559E-002
          12  1.188383052380705E-002
          13  0.196325572122214     
          14 -0.154127935780607     
          15  5.976333567908654E-002
          16  4.324962893290028E-002
          17 -0.118309170969403     
          18  0.119122469222518     
          19 -0.140183216969140     
          20 -6.963809374407848E-002
          21  0.260148446182152     
          22  0.297598226012188     
          23  0.244037986934097     
          24  5.496343881834225E-002
          25 -1.406883885881363E-007
          26 -5.797546665601578E-003
          27  0.179475330686689     
          28  6.990467070991087E-002
          29  5.432438829573095E-008
          30 -2.875201028300241E-003
          31  8.901674308574792E-002
          32  3.467146489170298E-002
          33  3.209422146593823E-004
          34 -7.206727610460930E-004
          35  3.997305463867107E-004
          36 -5.723237636072400E-003
          37 -2.253539034137148E-003
          38  4.304496260552447E-004
          39 -0.160087209657127     
          40 -0.160087158263046     
          41  0.160087154376471     
          42  0.160087292600061     
Sym=    12a
Ene=  -0.563827205636526     
Spin= Alpha
Occup=     2.00000000
           1  3.359085157605694E-007
           2  5.376168264076271E-002
           3 -0.157830725086436     
           4  0.409679656352641     
           5 -1.080809428160590E-007
           6  4.860032350463786E-002
           7 -0.142678298428894     
           8  0.370349874577159     
           9  4.169732569780452E-008
          10  1.770319349182451E-002
          11 -5.197223336240928E-002
          12  0.134904201252873     
          13 -1.953827628427402E-008
          14 -1.770314324269934E-002
          15  5.197223111299070E-002
          16 -0.134904219938073     
          17 -7.325830018783546E-008
          18 -4.860008448339720E-002
          19  0.142678489847012     
          20 -0.370349842864233     
          21  2.070285596301427E-007
          22 -5.376113877535713E-002
          23  0.157830663444001     
          24 -0.409679746586524     
          25 -2.654047384183062E-008
          26 -2.145483460334590E-007
          27 -9.121773067853255E-008
          28 -2.341135059260522E-008
          29  5.991325907168543E-008
          30  2.253653009045981E-007
          31 -2.103677172518969E-008
          32 -4.225283736414246E-008
          33  4.986873266274842E-006
          34  4.545135472730170E-004
          35 -4.595004205392919E-004
          36 -9.785928514807105E-005
          37 -1.280834110428090E-005
          38 -5.789269951314742E-004
          39  8.596305773460501E-002
          40 -8.596294948520143E-002
          41 -8.596299281492402E-002
          42  8.596302478894226E-002
Sym=    13a
Ene=  -0.552862968981829     
Spin= Alpha
Occup=     2.00000000
           1 -0.197827786188101     
           2  0.134310996425754     
           3  0.357823107564994     
           4  0.120227256671372     
           5  3.782276108358935E-002
           6  0.256367003106623     
           7 -1.786373231278826E-002
           8 -4.052460156185173E-002
           9  1.529774936013907E-002
          10 -0.213605315960227     
          11  7.107319912278726E-002
          12  5.541207642856141E-002
          13  1.529753431696887E-002
          14 -0.208025562203927     
          15 -0.101654519753559     
          16 -1.186401753351162E-002
          17  3.782295899157631E-002
          18  0.254016939842313     
          19  5.488249182494126E-002
          20 -1.219036313560728E-002
          21 -0.197828061088784     
          22  0.156745715793341     
          23 -0.336712720844737     
          24 -0.150289126123653     
          25 -0.178480131225942     
          26 -0.210713041483501     
          27 -1.528330699773845E-002
          28  2.176343980162912E-002
          29  6.991961198686215E-002
          30  0.326004451042507     
          31  2.364529562079412E-002
          32 -3.367136460542899E-002
          33 -2.444541345674381E-002
          34  1.324364489781373E-002
          35  1.120176855893008E-002
          36 -3.071184087118603E-003
          37  4.225991504875077E-003
          38  1.289025913800421E-003
          39  5.504629601305126E-002
          40  5.504641650188931E-002
          41  5.504615604610760E-002
          42  5.504612043923116E-002
Sym=    14a
Ene=  -0.542612921160141     
Spin= Alpha
Occup=     2.00000000
           1 -3.256227687638305E-007
           2 -1.828334179998021E-002
           3  5.367530031311810E-002
           4 -0.139323368980499     
           5 -1.991285612636792E-008
           6 -1.348310803175463E-002
           7  3.958333258801604E-002
           8 -0.102746998306453     
           9 -4.780784067669220E-008
          10  4.576068933244423E-002
          11 -0.134342406929184     
          12  0.348712506159240     
          13  4.092167445687274E-008
          14  4.576077582063316E-002
          15 -0.134342412714791     
          16  0.348712490256295     
          17  3.369687809890133E-008
          18 -1.348331936071304E-002
          19  3.958333844837182E-002
          20 -0.102746972710503     
          21  2.924470874100296E-007
          22 -1.828295209949237E-002
          23  5.367531961083506E-002
          24 -0.139323412695737     
          25  2.455064066696124E-008
          26 -3.835854763886912E-002
          27  0.112611650783716     
          28 -0.292304757404143     
          29  1.219057416709601E-008
          30 -2.076732680220623E-002
          31  6.096818661073525E-002
          32 -0.158254520336100     
          33  2.479061488666765E-003
          34 -5.278751814814399E-004
          35 -1.951186307185325E-003
          36 -4.098115872780288E-003
          37  1.075907114667856E-002
          38  1.225082532701036E-003
          39  0.235907847199953     
          40 -0.235907675875529     
          41  0.235907690676102     
          42 -0.235907831008869     
Sym=    15a
Ene=  -0.524791422334783     
Spin= Alpha
Occup=     2.00000000
           1 -0.207280380551364     
           2  3.962751872482162E-002
           3  0.377912299978004     
           4  0.140391828366551     
           5 -0.110269285464079     
           6  0.220006775415669     
           7 -0.173670234874561     
           8 -9.577787712198739E-002
           9  3.767193576324310E-002
          10 -0.266017830138028     
          11 -5.888901931806217E-002
          12  1.222157763928702E-002
          13 -3.767193719664706E-002
          14  0.268569865642850     
          15 -2.011465517258976E-002
          16 -4.299334604337697E-002
          17  0.110269333072054     
          18 -0.207784736600976     
          19 -0.204698284466303     
          20 -5.159354345997325E-002
          21  0.207280364858221     
          22 -6.379983669998450E-002
          23  0.370410609132112     
          24  0.151074378550290     
          25 -7.812377594426265E-009
          26 -5.253509750540998E-003
          27  0.162638697792041     
          28  6.334682280869282E-002
          29 -8.689542240914962E-009
          30 -7.826109902102697E-004
          31  2.422690999775681E-002
          32  9.436427548829136E-003