[Molden Format]
[Title]
[Atoms] AU
O      1     8  0.30196192578130E+01  0.48585632338098E+01 -0.13138399860855E+00
C      2     6  0.26328251109477E+01  0.26209768213024E+01 -0.76784706476359E-01
C      3     6  0.11449329392096E+00  0.13633836412903E+01 -0.18877113153845E-01
C      4     6 -0.21712243145419E+01  0.26471812788699E+01  0.26429927687862E-01
C      5     6 -0.43918307744970E+01  0.12557185372332E+01  0.92776227350937E-01
C      6     6 -0.43341881676140E+01 -0.13652292539673E+01  0.11627066118219E+00
C      7     6 -0.20452855112351E+01 -0.26571430274505E+01  0.68951031799847E-01
C      8     6  0.14455262708688E+00 -0.12573447814878E+01 -0.98150282031654E-03
S      9    16  0.33363105068033E+01 -0.23170563046688E+01 -0.78391445882893E-01
O     10     8  0.41019598782022E+01 -0.35298161829647E+01  0.21969392357100E+01
O     11     8  0.40141972133412E+01 -0.34325296251689E+01 -0.24303914302360E+01
N     12     7  0.44116025223860E+01  0.75522065387298E+00 -0.38901890644069E-01
Cl    13    17  0.75784666640615E+01  0.12587800802440E+01 -0.12332181993098E+00
H     14     1 -0.21775321371683E+01  0.46859833097865E+01  0.10207952993624E-01
H     15     1 -0.61863647070124E+01  0.22247769216747E+01  0.12869068304824E+00
H     16     1 -0.60795782373332E+01 -0.24184319826731E+01  0.17302000435530E+00
H     17     1 -0.19680232251606E+01 -0.46930333197030E+01  0.85748183625201E-01
[GTO]
           1 0
 s           4   1.00000000000000     
   69.1379619061966      -0.204787563700778     
   11.9061291327073      -0.249970231368273     
  0.956708277443407       0.400258802406396     
  0.364625204960737       0.159522066676936     
 p           4   1.00000000000000     
   8.21241932577816        1.13215567991868     
   2.12935769970981        1.04768407822548     
  0.750664482023609       0.549565082171590     
  0.298852465432831       8.290848659276662E-002
 
           2 0
 s           4   1.00000000000000     
   51.0493630955799      -0.163120632101274     
   8.79112274068875      -0.199110245810007     
  0.706404222589298       0.318820477536558     
  0.269228134134116       0.127065041842404     
 p           4   1.00000000000000     
   5.82636561408000       0.737164515452096     
   1.51068960187200       0.682163716148503     
  0.532564832880000       0.357830539292537     
  0.212023236906000       5.398303027584788E-002
 
           3 0
 s           4   1.00000000000000     
   51.0493630955799      -0.163120632101274     
   8.79112274068875      -0.199110245810007     
  0.706404222589298       0.318820477536558     
  0.269228134134116       0.127065041842404     
 p           4   1.00000000000000     
   5.82636561408000       0.737164515452096     
   1.51068960187200       0.682163716148503     
  0.532564832880000       0.357830539292537     
  0.212023236906000       5.398303027584788E-002
 
           4 0
 s           4   1.00000000000000     
   51.0493630955799      -0.163120632101274     
   8.79112274068875      -0.199110245810007     
  0.706404222589298       0.318820477536558     
  0.269228134134116       0.127065041842404     
 p           4   1.00000000000000     
   5.82636561408000       0.737164515452096     
   1.51068960187200       0.682163716148503     
  0.532564832880000       0.357830539292537     
  0.212023236906000       5.398303027584788E-002
 
           5 0
 s           4   1.00000000000000     
   51.0493630955799      -0.163120632101274     
   8.79112274068875      -0.199110245810007     
  0.706404222589298       0.318820477536558     
  0.269228134134116       0.127065041842404     
 p           4   1.00000000000000     
   5.82636561408000       0.737164515452096     
   1.51068960187200       0.682163716148503     
  0.532564832880000       0.357830539292537     
  0.212023236906000       5.398303027584788E-002
 
           6 0
 s           4   1.00000000000000     
   51.0493630955799      -0.163120632101274     
   8.79112274068875      -0.199110245810007     
  0.706404222589298       0.318820477536558     
  0.269228134134116       0.127065041842404     
 p           4   1.00000000000000     
   5.82636561408000       0.737164515452096     
   1.51068960187200       0.682163716148503     
  0.532564832880000       0.357830539292537     
  0.212023236906000       5.398303027584788E-002
 
           7 0
 s           4   1.00000000000000     
   51.0493630955799      -0.163120632101274     
   8.79112274068875      -0.199110245810007     
  0.706404222589298       0.318820477536558     
  0.269228134134116       0.127065041842404     
 p           4   1.00000000000000     
   5.82636561408000       0.737164515452096     
   1.51068960187200       0.682163716148503     
  0.532564832880000       0.357830539292537     
  0.212023236906000       5.398303027584788E-002
 
           8 0
 s           4   1.00000000000000     
   51.0493630955799      -0.163120632101274     
   8.79112274068875      -0.199110245810007     
  0.706404222589298       0.318820477536558     
  0.269228134134116       0.127065041842404     
 p           4   1.00000000000000     
   5.82636561408000       0.737164515452096     
   1.51068960187200       0.682163716148503     
  0.532564832880000       0.357830539292537     
  0.212023236906000       5.398303027584788E-002
 
           9 0
 s           4   1.00000000000000     
   5.94059715667128      -8.937241731159805E-002
   1.67332031646937      -0.180826416098390     
  0.300052353376111       0.217239963388792     
  0.147626982610695       6.093036238655329E-002
 p           4   1.00000000000000     
   7.60402394306428      -0.258148203245547     
  0.785799530644415       0.290555694475872     
  0.355154539932778       0.228494836712103     
  0.171689541475341       3.379048730081900E-002
 d           3   1.00000000000000     
   1.51575937639239       0.574808919567051     
  0.475268595433768       0.261853961962925     
  0.185128831077629       3.488754942672512E-002
 
          10 0
 s           4   1.00000000000000     
   69.1379619061966      -0.204787563700778     
   11.9061291327073      -0.249970231368273     
  0.956708277443407       0.400258802406396     
  0.364625204960737       0.159522066676936     
 p           4   1.00000000000000     
   8.21241932577816        1.13215567991868     
   2.12935769970981        1.04768407822548     
  0.750664482023609       0.549565082171590     
  0.298852465432831       8.290848659276662E-002
 
          11 0
 s           4   1.00000000000000     
   69.1379619061966      -0.204787563700778     
   11.9061291327073      -0.249970231368273     
  0.956708277443407       0.400258802406396     
  0.364625204960737       0.159522066676936     
 p           4   1.00000000000000     
   8.21241932577816        1.13215567991868     
   2.12935769970981        1.04768407822548     
  0.750664482023609       0.549565082171590     
  0.298852465432831       8.290848659276662E-002
 
          12 0
 s           4   1.00000000000000     
   63.5940244669410      -0.192343884147216     
   10.9514172315237      -0.234781079249537     
  0.879993102573770       0.375937539017009     
  0.335387152965211       0.149828892718628     
 p           4   1.00000000000000     
   7.29650404814951       0.976586663156674     
   1.89187454507126       0.903722267303458     
  0.666944321108241       0.474049584615364     
  0.265522026741309       7.151606771501186E-002
 
          13 0
 s           4   1.00000000000000     
   9.34674866189868      -0.125552785052236     
   2.63274953955161      -0.254029831967196     
  0.472092932487140       0.305184566430756     
  0.232271649766237       8.559661830788402E-002
 p           4   1.00000000000000     
   8.96653868620652      -0.317209215069455     
  0.926601749794952       0.357031126383567     
  0.418792332287928       0.280771537007085     
  0.202453454537036       4.152131922185704E-002
 d           3   1.00000000000000     
   3.20597745654841        2.13231494102881     
   1.00523897559031       0.971375176087545     
  0.391565355448865       0.129419082352652     
 
          14 0
 s           3   1.00000000000000     
   3.37022769753360       0.273591105889083     
  0.613891182214980       0.264605406538605     
  0.166142911484160       8.246594753408230E-002
 
          15 0
 s           3   1.00000000000000     
   3.37022769753360       0.273591105889083     
  0.613891182214980       0.264605406538605     
  0.166142911484160       8.246594753408230E-002
 
          16 0
 s           3   1.00000000000000     
   3.37022769753360       0.273591105889083     
  0.613891182214980       0.264605406538605     
  0.166142911484160       8.246594753408230E-002
 
          17 0
 s           3   1.00000000000000     
   3.37022769753360       0.273591105889083     
  0.613891182214980       0.264605406538605     
  0.166142911484160       8.246594753408230E-002
 
[MO]
Sym=     1a
Ene=   -1.08124943286396     
Spin= Alpha
Occup=     2.00000000
           1  4.993177768119324E-004
           2 -3.906390824221739E-004
           3  3.800866945645001E-004
           4 -1.621562167073407E-006
           5 -2.000685531426217E-003
           6 -3.958885388804715E-003
           7  2.824119780595616E-003
           8 -3.285265647435542E-005
           9 -5.152205639487422E-004
          10 -9.519830434780172E-004
          11  1.284895751591349E-004
          12  1.505108068198604E-005
          13 -9.278029826889693E-005
          14 -1.679703779566665E-004
          15  7.957258805088396E-005
          16  3.972884309630479E-006
          17 -1.802845096773934E-005
          18 -3.441468505476290E-005
          19 -2.579930633075824E-006
          20  9.344854932758400E-007
          21 -1.554482232839991E-005
          22 -3.522566010044502E-005
          23  1.024680691446553E-006
          24  1.088795629547772E-006
          25 -1.184001324738603E-004
          26 -1.186212755280283E-004
          27 -1.780520185418439E-004
          28  1.577300434662122E-006
          29 -8.469866411999301E-004
          30 -1.308151224402926E-003
          31 -2.446384193162879E-004
          32  2.960351739100421E-005
          33  6.074357801324706E-003
          34 -5.257163365800956E-004
          35 -2.968840932313083E-003
          36 -6.410521462390275E-005
          37 -8.808059737284811E-005
          38 -5.696841722690533E-003
          39  5.784922320063381E-003
          40 -5.182798917354774E-003
          41  8.375605900435455E-005
          42 -1.831343443928705E-004
          43 -2.004789642481594E-003
          44 -1.083442311604723E-005
          45 -1.198581517833060E-003
          46  5.021435795323646E-004
          47 -1.980820411857642E-003
          48 -2.451816122480871E-005
          49 -1.181604187645192E-003
          50 -5.473768320937858E-004
          51 -3.274464716998654E-002
          52 -8.213508443969285E-002
          53 -1.654944840541604E-002
          54  2.179590728400787E-003
          55 -0.975041913881743     
          56 -2.786572183333755E-002
          57 -1.232295791094983E-002
          58  3.618209847820111E-004
          59  5.518504382827701E-003
          60 -2.047267903258715E-003
          61 -3.471236479568986E-003
          62  1.485379670604569E-003
          63 -2.697496767314065E-004
          64 -4.562675703518127E-005
          65 -1.030523525562827E-004
          66 -1.079985399107116E-005
          67 -1.195953343619226E-005
          68 -9.558751420420024E-006
Sym=     2a
Ene=  -0.816230603541520     
Spin= Alpha
Occup=     2.00000000
           1  4.147097611281381E-003
           2  8.010537088920494E-004
           3 -2.017316352897635E-003
           4  8.207381379684497E-005
           5 -2.517348066847116E-003
           6  2.510428112494910E-003
           7  7.830379128318282E-003
           8  5.506408201828242E-006
           9 -7.688863214387664E-003
          10 -2.688390637286327E-003
          11  5.133315367215232E-003
          12 -3.614251698814438E-006
          13 -5.516518041321215E-006
          14 -1.980555073522649E-004
          15  1.641775144775397E-004
          16  1.585340824085196E-006
          17  1.466440641776755E-004
          18 -3.152506900432257E-006
          19 -4.732564793259238E-006
          20 -2.226521418680589E-008
          21  6.451798692468737E-005
          22 -1.662391722884777E-004
          23  1.283617706363472E-004
          24  4.243626324945094E-006
          25 -3.095827511567700E-003
          26 -1.835357839975012E-003
          27 -8.871741989281212E-004
          28  7.727798584170785E-005
          29 -5.104400255707291E-002
          30 -3.407266679021166E-002
          31  1.042601220806482E-002
          32  8.236418250720517E-004
          33 -0.816620243209021     
          34 -3.801079519916542E-004
          35  3.918325910937019E-003
          36  2.567445484498702E-005
          37 -9.126001094345174E-003
          38 -7.021129599045652E-003
          39  1.614713069339083E-002
          40 -9.291086581410889E-003
          41  3.489977914959874E-004
          42 -1.725164705413360E-004
          43 -0.106734279929509     
          44  3.282653235117648E-002
          45 -4.673767447724820E-002
          46  8.521773288272050E-002
          47 -0.106274199801983     
          48  2.944875097650741E-002
          49 -4.328695687794085E-002
          50 -8.826200437113821E-002
          51 -5.795431540345286E-002
          52  3.395435951746677E-002
          53  7.036344138965732E-002
          54  1.007368108712527E-003
          55  5.953975502583934E-003
          56 -1.783065849828273E-003
          57  2.111058585813018E-003
          58  1.117481473316595E-004
          59 -1.049440686314901E-003
          60  1.115170007986375E-003
          61 -6.572932167147375E-005
          62  1.980998232915463E-003
          63  8.969519932779562E-005
          64 -2.552018683862373E-005
          65  1.469468686163382E-004
          66 -2.323069511039795E-006
          67 -3.167808652673281E-005
          68  6.591487041849279E-003
Sym=     3a
Ene=  -0.743468394761327     
Spin= Alpha
Occup=     2.00000000
           1  0.516779338584516     
           2 -3.760138295961552E-002
           3 -0.206308312070123     
           4  5.149339649180877E-003
           5  0.446219569357950     
           6  4.419096563782637E-002
           7  0.154466806843919     
           8 -3.290169467932415E-003
           9  0.106257968166380     
          10  6.045389689580777E-002
          11  3.960546598623042E-002
          12 -1.465248073101078E-003
          13  2.152705315920229E-002
          14  2.274501306135415E-002
          15 -3.018901977617991E-003
          16 -4.877572676415289E-004
          17 -4.151813512226400E-004
          18  2.939352615683198E-003
          19  4.453057140709108E-004
          20 -7.056529989894842E-005
          21 -9.776119884022916E-004
          22  5.840631568873570E-004
          23  4.956789503244732E-004
          24 -1.560403353405342E-005
          25 -1.260850200725388E-003
          26  1.723418856482153E-003
          27  2.689170846818236E-003
          28 -5.264950796488840E-005
          29  2.394913271100122E-002
          30  9.457952897613168E-003
          31  2.528659907386541E-002
          32 -3.366851613596392E-004
          33 -5.815857044610787E-003
          34 -8.886352923042696E-003
          35  1.662132235733765E-002
          36 -1.360080812158340E-004
          37 -1.606897211577065E-003
          38  7.578182036248683E-003
          39 -5.971284824671618E-003
          40  3.514030530297346E-003
          41  2.319310764474528E-005
          42  2.585036415146878E-004
          43 -1.560590635634837E-002
          44 -2.514033245195447E-004
          45 -9.852311695269242E-004
          46  4.592313312772651E-003
          47 -1.445298594176260E-002
          48 -5.585571212550061E-004
          49 -4.166293933592862E-004
          50 -4.436196188237936E-003
          51  0.147301989413535     
          52 -8.383355666827950E-002
          53  0.120663187948425     
          54 -2.409544040399023E-003
          55 -1.158385002792958E-002
          56 -1.974155011651238E-002
          57  1.209392606262710E-002
          58 -8.581986854999419E-007
          59  1.813424171321524E-003
          60 -4.786317714923768E-004
          61 -1.334792399829147E-003
          62  1.799283722167063E-003
          63 -1.581663740978977E-004
          64 -6.456893217709063E-005
          65  3.456283696896757E-003
          66 -1.839441054705582E-004
          67 -1.716166230056859E-004
          68 -3.371104122405094E-004
Sym=     4a
Ene=  -0.715969193184437     
Spin= Alpha
Occup=     2.00000000
           1 -0.229307545225079     
           2 -2.619324347897863E-003
           3  5.948218258591009E-003
           4  1.124613253989009E-004
           5  9.091763676905891E-002
           6 -5.291070410833189E-002
           7 -0.184895678148139     
           8  5.240545705837081E-003
           9  0.344894398068640     
          10 -2.371718214347317E-002
          11 -8.024203198300082E-002
          12  1.937135884686819E-003
          13  0.170098024042997     
          14  4.056911004256699E-002
          15 -8.015372383887868E-002
          16 -1.993738826865038E-004
          17  0.119218339230206     
          18  5.715655813120443E-002
          19 -2.464724728121073E-002
          20 -1.140372853520527E-003
          21  0.130551262078789     
          22  6.150144565091738E-002
          23  2.217322170571109E-002
          24 -1.760643021100799E-003
          25  0.188941028015045     
          26  2.750608385004519E-002
          27  8.927482787376978E-002
          28 -1.463174716303981E-003
          29  0.325412409379101     
          30 -7.182012736502669E-002
          31  0.104190050739155     
          32  1.412609770681644E-003
          33 -3.480541053110112E-002
          34 -5.282463259241543E-002
          35  7.708839088460531E-002
          36  3.473235902386798E-004
          37  1.685578432404313E-002
          38 -1.125874966679988E-003
          39 -1.572990935736314E-002
          40  6.050843855787243E-003
          41 -8.907969910341452E-004
          42  7.520382121623643E-004
          43 -0.133815381897098     
          44 -1.369883894315662E-003
          45  3.083249295626228E-003
          46  2.017375227303338E-002
          47 -0.125059145850556     
          48 -2.784708105357532E-003
          49  4.748351563866124E-003
          50 -1.966925408893893E-002
          51  0.158467338971773     
          52 -0.106479033920917     
          53  2.103305266162040E-002
          54 -2.019161034056102E-004
          55  5.893781226970709E-003
          56 -4.175396937450747E-003
          57  2.764886858406906E-003
          58 -1.531715161590070E-004
          59  2.994626242669674E-003
          60 -1.616132068307382E-003
          61 -1.378494174362292E-003
          62  3.415962089438589E-004
          63 -1.692324583003198E-004
          64 -3.430780819183036E-005
          65  2.047550595661105E-002
          66  1.302094442701892E-002
          67  1.512049787042708E-002
          68  2.447423752823974E-002
Sym=     5a
Ene=  -0.705607133516296     
Spin= Alpha
Occup=     2.00000000
           1  1.826191629812822E-002
           2 -3.398422187166795E-003
           3  1.272407753721566E-003
           4  3.456697744468642E-003
           5 -7.973966006917561E-003
           6 -6.985340615254243E-003
           7  1.542277576037894E-002
           8  1.001387141142575E-002
           9  6.630716139619881E-003
          10 -8.847981255347918E-003
          11 -8.142839249447085E-004
          12  7.615720633472964E-003
          13  1.146182504756915E-002
          14 -7.856591066208131E-005
          15 -4.385754302155044E-003
          16  1.212796984011988E-003
          17  1.102408714346677E-002
          18  3.936191028705062E-003
          19 -2.254139003252568E-003
          20  3.221913304352307E-004
          21  1.235114653445809E-002
          22  4.621124670774177E-003
          23  1.772833511895909E-003
          24  6.216755180916129E-004
          25  1.504701612194852E-002
          26  2.078805610557743E-004
          27  5.338752353802770E-003
          28  4.050660022786730E-003
          29  1.114184276424470E-002
          30 -8.139121734318857E-003
          31 -1.028878646821783E-003
          32  2.513261659792648E-002
          33  1.870815048971150E-005
          34  3.973061015527771E-003
          35 -1.123272701335309E-002
          36  0.237410669383310     
          37  1.195842928231281E-003
          38  1.113817986554287E-003
          39 -2.309660914785568E-003
          40 -2.964457680681102E-003
          41  3.132054993294525E-002
          42 -5.447668766047077E-002
          43  0.595442684233521     
          44 -3.006027333637216E-002
          45  3.667896420042577E-002
          46 -3.358953419172584E-003
          47 -0.579018603812256     
          48  2.891524774634295E-002
          49 -3.900079060686566E-002
          50 -5.142063752240582E-003
          51 -2.471098473477097E-002
          52  8.807049352366056E-003
          53 -5.123824956064284E-003
          54  3.466383679885020E-002
          55  2.571170721153984E-003
          56  4.325304516220354E-003
          57 -1.137396064066591E-004
          58  5.065325389863813E-003
          59 -2.595654461621896E-004
          60  1.321025590012040E-004
          61  1.274628871609856E-004
          62 -4.397556445956508E-005
          63  2.237641747332205E-004
          64  1.934275810825331E-004
          65  1.729249156527184E-003
          66  1.545820337546952E-003
          67  1.809154384904342E-003
          68  2.477256656104092E-003
Sym=     6a
Ene=  -0.703878416607603     
Spin= Alpha
Occup=     2.00000000
           1  0.288955164705312     
           2 -4.881163730269065E-002
           3  2.380320323007844E-002
           4 -6.374545613381733E-004
           5 -0.140634381855219     
           6 -9.789160135647582E-002
           7  0.241994521908235     
           8 -6.053321544060098E-003
           9  5.390316935867159E-002
          10 -0.130735145327475     
          11 -7.870024193162805E-003
          12  1.432150294250963E-003
          13  0.148742379056923     
          14 -8.837680324592529E-003
          15 -5.597744820345300E-002
          16  4.422143225088406E-004
          17  0.152340277018061     
          18  5.125924277520676E-002
          19 -3.125193467088871E-002
          20 -1.004561722597102E-003
          21  0.170232211623906     
          22  6.024055957950737E-002
          23  2.455322423862765E-002
          24 -1.848926987887624E-003
          25  0.196635576261526     
          26 -5.675495227829892E-003
          27  6.829786692930559E-002
          28 -8.786822245923987E-004
          29  0.124442071610628     
          30 -0.117015970565971     
          31 -2.203162958317704E-002
          32  8.000884458534453E-004
          33  7.350433775682418E-003
          34 -3.693032585411401E-004
          35 -9.936675487531556E-002
          36 -1.761902188898179E-002
          37  2.074257233757751E-003
          38 -1.422304562601263E-002
          39  1.214878839225488E-002
          40 -1.896082057972346E-002
          41 -2.310812933059078E-003
          42  3.256066825002378E-003
          43  9.608684228126975E-002
          44 -4.056048897001495E-003
          45 -1.607851652152951E-002
          46 -1.216842343973654E-002
          47  0.176687938975872     
          48 -7.392928059307224E-003
          49 -1.198642681930141E-002
          50  1.202320336511969E-002
          51 -0.396069299252834     
          52  0.137814503695154     
          53 -8.097409346210843E-002
          54  1.507115359061806E-004
          55  3.562806010073061E-002
          56  6.279386589691115E-002
          57 -3.214022173481304E-003
          58 -1.220108789343228E-003
          59 -4.678975431800875E-003
          60  2.282193922681057E-003
          61  2.396781509119818E-003
          62 -9.462682884612637E-004
          63  3.105392902240729E-004
          64  3.685767197643119E-005
          65  2.297486468432354E-002
          66  2.219668704980592E-002
          67  2.583476556406186E-002
          68  3.277041683350254E-002
Sym=     7a
Ene=  -0.680866720704248     
Spin= Alpha
Occup=     2.00000000
           1 -6.078531812850016E-002
           2 -9.924191778332771E-002
           3  3.575669893019556E-003
           4  1.103940304874201E-003
           5  3.760428457522608E-002
           6 -0.225976713311658     
           7 -5.461110210372368E-003
           8  2.710602806564014E-003
           9  0.333782061332918     
          10 -1.963104617160390E-002
          11  9.378744608510413E-002
          12 -4.035722928090817E-004
          13  0.221447026360657     
          14  0.102518246547440     
          15 -1.639864674444644E-002
          16 -2.359241526860921E-003
          17 -4.786203111774238E-002
          18  4.206723917609834E-002
          19  9.867732584359325E-002
          20 -1.929129431419727E-003
          21 -0.264905288838231     
          22 -7.066611663440552E-002
          23  3.239074879413656E-002
          24  1.544179725060839E-003
          25 -0.325479390815277     
          26  4.080590713264660E-002
          27 -4.629533714433593E-002
          28 -5.872831382861338E-004
          29 -7.471005773603588E-002
          30  9.928343210311659E-002
          31  0.159090116612414     
          32 -3.925310461309242E-003
          33 -2.942090721925322E-002
          34  1.429174846976032E-002
          35 -2.980123631427213E-002
          36 -9.457011303161914E-004
          37 -4.926171657754352E-003
          38 -1.108858227316193E-002
          39  1.601475393091628E-002
          40 -4.056262016743112E-003
          41  2.791522103110079E-004
          42 -6.380626297004830E-004
          43  9.130156478667438E-002
          44  5.675600954808356E-003
          45 -8.316814000847628E-003
          46  7.275560228038394E-003
          47  9.108476511495546E-002
          48  5.077240340599217E-003
          49 -7.977707913159219E-003
          50 -7.747998560641776E-003
          51 -0.215209442199671     
          52 -2.602592524446799E-002
          53 -6.555675440557017E-002
          54  2.974063356906913E-003
          55  5.499048119773280E-002
          56  8.619811630681413E-002
          57 -4.904528505084830E-004
          58 -1.735334419037930E-003
          59 -1.700214252759434E-003
          60  7.978234156684640E-004
          61  9.023908370909699E-004
          62 -3.168911383190009E-004
          63  1.508533072040012E-004
          64  6.609644864051733E-006
          65  5.787051054870885E-002
          66 -1.068569791560761E-002
          67 -6.305319221756094E-002
          68 -8.201041438555823E-002
Sym=     8a
Ene=  -0.675127407124177     
Spin= Alpha
Occup=     2.00000000
           1  0.153429296604083     
           2 -4.353863317223925E-002
           3  4.153796011618917E-002
           4 -1.418925026590692E-003
           5 -7.693958309041364E-002
           6 -9.816166145451062E-002
           7  9.605523108490066E-002
           8 -3.206827501327536E-003
           9  3.015897207272201E-002
          10  5.746448503151347E-002
          11 -0.101563935533812     
          12 -1.553034780731770E-003
          13 -0.221325344761004     
          14  8.685393854010381E-002
          15  4.728211175172272E-002
          16 -2.774857756084421E-003
          17 -0.326765506561072     
          18 -4.516963442952193E-002
          19  2.181270663932972E-002
          20  7.425592486319038E-004
          21 -0.199885145111863     
          22  2.554810447416738E-002
          23 -0.102548357194934     
          24  2.363211306956746E-004
          25  9.507736645651152E-002
          26  0.123642981490982     
          27 -3.352878834202412E-003
          28 -3.231839446102842E-003
          29  0.282019859336918     
          30  6.537328802978848E-003
          31 -2.948711462103746E-002
          32  9.561534120091394E-006
          33  0.106345539581839     
          34 -0.104492872994071     
          35  6.105876764535709E-002
          36  3.546319462511016E-003
          37  3.401496536919703E-002
          38 -8.325319800310171E-004
          39 -3.318243338916601E-002
          40  4.556546645076546E-003
          41 -1.442555593271053E-003
          42  8.623405522348554E-004
          43 -0.288596707076719     
          44 -3.386787421371842E-002
          45  2.743411897773836E-002
          46 -3.034572989644753E-002
          47 -0.287801180581891     
          48 -3.258428932676179E-002
          49  2.537665888401916E-002
          50  3.233404054483879E-002
          51 -0.206226054722808     
          52  4.427097165065712E-003
          53 -0.127982297135504     
          54  2.044667807668598E-003
          55  4.080836974296081E-002
          56  7.678479391945645E-002
          57 -8.127040701507380E-003
          58 -1.585130213417150E-003
          59 -2.869843689469424E-003
          60  8.352972887953074E-004
          61  2.034546400674117E-003
          62 -1.118939315418020E-003
          63  1.927772709272007E-004
          64  2.055150573686661E-005
          65 -4.868895587829364E-002
          66 -8.088879366893087E-002
          67 -4.998872004710713E-002
          68  3.062972901556216E-002
Sym=     9a
Ene=  -0.665787468557427     
Spin= Alpha
Occup=     2.00000000
           1 -0.166234561420437     
           2  1.003527901184618E-002
           3 -5.751532303370630E-002
           4  2.260346381849417E-003
           5  0.115757499674636     
           6  6.816938460575094E-003