21
 energy: -44.393288872952 gnorm: 0.000665332030 xtb: 6.7.1 (edcfbbe)
C           -4.70182994475866        0.06511165937095        0.05128954070174
O           -3.33821320038007        0.40357599379563       -0.17652294536348
C           -2.44019007776910       -0.49230050284205        0.28378346581895
O           -2.70799816171995       -1.51382661927756        0.83491145497364
N           -1.17828863843121       -0.02398278168272       -0.03554427526125
C            0.03104902317851       -0.57970350346577        0.34631519368614
N            0.05829139662071       -1.42952816730947        1.27878464652698
Cl           1.49288110858736       -2.23878075106713        1.64712454982089
N            1.09998410509260       -0.10314308685044       -0.43124070271705
C            2.33583209090053        0.26920690752240        0.04781422865947
O            2.62476979874106        0.42279942396473        1.19765921839453
O            3.15699899392948        0.48882336991842       -0.99704321451100
C            4.47266595484514        0.90672712271340       -0.65372978331377
H           -4.97114202812415       -0.82687292698419       -0.51722234970809
H           -5.28238217059452        0.92081030834147       -0.28306928060059
H           -4.87239594931381       -0.12696660520903        1.11159746115642
H           -1.15036924009107        0.84982994472388       -0.54261421620748
H            0.96731303337564       -0.02307932076654       -1.42960850915393
H            4.44691836695145        1.88962376546380       -0.17923588790193
H            4.92950273001023        0.19370048436295        0.03441912686528
H            5.02660280895084        0.94797528527801       -1.58786772186453
