[Molden Format]
[Title]
[Atoms] AU
O      1     8  0.12650535243400E+01  0.61142322714116E+01 -0.15878633620262E+01
C      2     6  0.18994353829887E+01  0.39692639524547E+01 -0.11540080436172E+01
O      3     8  0.42435348966495E+01  0.31882329644889E+01 -0.12176897224953E+01
I      4    53  0.48757590045692E+01 -0.66802017147683E+00 -0.36795596041707E+00
O      5     8  0.46066746547181E+01 -0.44100526022480E+01  0.53251079219275E+00
C      6     6  0.93847202420875E+00 -0.45770716947277E+00 -0.12210167176239E-03
C      7     6 -0.59707166243753E+00 -0.24564765283007E+01  0.63746677789838E+00
C      8     6 -0.31718403850695E+01 -0.19915263798882E+01  0.79966912122802E+00
C      9     6 -0.41400781070219E+01  0.40226015391218E+00  0.33209011933189E+00
C     10     6 -0.25508090701073E+01  0.23793065758251E+01 -0.30521529376260E+00
C     11     6  0.31389644487332E-01  0.19425835567354E+01 -0.47417209301851E+00
H     12     1  0.62339559023299E+01 -0.51753037310239E+01  0.73053093301654E+00
H     13     1  0.19358870136331E+00 -0.42981540559984E+01  0.98999375438577E+00
H     14     1 -0.44291789012917E+01 -0.35187570473513E+01  0.12963823507583E+01
H     15     1 -0.61499632697198E+01  0.72148679358248E+00  0.46715367975836E+00
H     16     1 -0.32489223400090E+01  0.42586314173492E+01 -0.67877095156106E+00
[GTO]
           1 0
 s           4   1.00000000000000     
   69.1379619061966      -0.204787563700778     
   11.9061291327073      -0.249970231368273     
  0.956708277443407       0.400258802406396     
  0.364625204960737       0.159522066676936     
 p           4   1.00000000000000     
   8.21241932577816        1.13215567991868     
   2.12935769970981        1.04768407822548     
  0.750664482023609       0.549565082171590     
  0.298852465432831       8.290848659276662E-002
 
           2 0
 s           4   1.00000000000000     
   51.0493630955799      -0.163120632101274     
   8.79112274068875      -0.199110245810007     
  0.706404222589298       0.318820477536558     
  0.269228134134116       0.127065041842404     
 p           4   1.00000000000000     
   5.82636561408000       0.737164515452096     
   1.51068960187200       0.682163716148503     
  0.532564832880000       0.357830539292537     
  0.212023236906000       5.398303027584788E-002
 
           3 0
 s           4   1.00000000000000     
   69.1379619061966      -0.204787563700778     
   11.9061291327073      -0.249970231368273     
  0.956708277443407       0.400258802406396     
  0.364625204960737       0.159522066676936     
 p           4   1.00000000000000     
   8.21241932577816        1.13215567991868     
   2.12935769970981        1.04768407822548     
  0.750664482023609       0.549565082171590     
  0.298852465432831       8.290848659276662E-002
 
           4 0
 s           4   1.00000000000000     
   4.01162386227179       2.229639191655230E-002
  0.554506456195055      -0.256763535808992     
  0.160705703437245       0.213356424819949     
  9.209356190917939E-002  2.067164842935832E-002
 p           4   1.00000000000000     
   2.11164369304120      -6.536425560776801E-002
  0.979856670271422      -0.189095136292427     
  0.263422952797140       0.202666144590931     
  0.146548718279452       4.406395305437869E-002
 d           3   1.00000000000000     
   1.40527137125187      -6.001000641404181E-002
  0.209619811637925       6.305531614656772E-002
  0.102798220867168       1.430952821123767E-002
 
           5 0
 s           4   1.00000000000000     
   69.1379619061966      -0.204787563700778     
   11.9061291327073      -0.249970231368273     
  0.956708277443407       0.400258802406396     
  0.364625204960737       0.159522066676936     
 p           4   1.00000000000000     
   8.21241932577816        1.13215567991868     
   2.12935769970981        1.04768407822548     
  0.750664482023609       0.549565082171590     
  0.298852465432831       8.290848659276662E-002
 
           6 0
 s           4   1.00000000000000     
   51.0493630955799      -0.163120632101274     
   8.79112274068875      -0.199110245810007     
  0.706404222589298       0.318820477536558     
  0.269228134134116       0.127065041842404     
 p           4   1.00000000000000     
   5.82636561408000       0.737164515452096     
   1.51068960187200       0.682163716148503     
  0.532564832880000       0.357830539292537     
  0.212023236906000       5.398303027584788E-002
 
           7 0
 s           4   1.00000000000000     
   51.0493630955799      -0.163120632101274     
   8.79112274068875      -0.199110245810007     
  0.706404222589298       0.318820477536558     
  0.269228134134116       0.127065041842404     
 p           4   1.00000000000000     
   5.82636561408000       0.737164515452096     
   1.51068960187200       0.682163716148503     
  0.532564832880000       0.357830539292537     
  0.212023236906000       5.398303027584788E-002
 
           8 0
 s           4   1.00000000000000     
   51.0493630955799      -0.163120632101274     
   8.79112274068875      -0.199110245810007     
  0.706404222589298       0.318820477536558     
  0.269228134134116       0.127065041842404     
 p           4   1.00000000000000     
   5.82636561408000       0.737164515452096     
   1.51068960187200       0.682163716148503     
  0.532564832880000       0.357830539292537     
  0.212023236906000       5.398303027584788E-002
 
           9 0
 s           4   1.00000000000000     
   51.0493630955799      -0.163120632101274     
   8.79112274068875      -0.199110245810007     
  0.706404222589298       0.318820477536558     
  0.269228134134116       0.127065041842404     
 p           4   1.00000000000000     
   5.82636561408000       0.737164515452096     
   1.51068960187200       0.682163716148503     
  0.532564832880000       0.357830539292537     
  0.212023236906000       5.398303027584788E-002
 
          10 0
 s           4   1.00000000000000     
   51.0493630955799      -0.163120632101274     
   8.79112274068875      -0.199110245810007     
  0.706404222589298       0.318820477536558     
  0.269228134134116       0.127065041842404     
 p           4   1.00000000000000     
   5.82636561408000       0.737164515452096     
   1.51068960187200       0.682163716148503     
  0.532564832880000       0.357830539292537     
  0.212023236906000       5.398303027584788E-002
 
          11 0
 s           4   1.00000000000000     
   51.0493630955799      -0.163120632101274     
   8.79112274068875      -0.199110245810007     
  0.706404222589298       0.318820477536558     
  0.269228134134116       0.127065041842404     
 p           4   1.00000000000000     
   5.82636561408000       0.737164515452096     
   1.51068960187200       0.682163716148503     
  0.532564832880000       0.357830539292537     
  0.212023236906000       5.398303027584788E-002
 
          12 0
 s           3   1.00000000000000     
   3.37022769753360       0.273591105889083     
  0.613891182214980       0.264605406538605     
  0.166142911484160       8.246594753408230E-002
 
          13 0
 s           3   1.00000000000000     
   3.37022769753360       0.273591105889083     
  0.613891182214980       0.264605406538605     
  0.166142911484160       8.246594753408230E-002
 
          14 0
 s           3   1.00000000000000     
   3.37022769753360       0.273591105889083     
  0.613891182214980       0.264605406538605     
  0.166142911484160       8.246594753408230E-002
 
          15 0
 s           3   1.00000000000000     
   3.37022769753360       0.273591105889083     
  0.613891182214980       0.264605406538605     
  0.166142911484160       8.246594753408230E-002
 
          16 0
 s           3   1.00000000000000     
   3.37022769753360       0.273591105889083     
  0.613891182214980       0.264605406538605     
  0.166142911484160       8.246594753408230E-002
 
[MO]
Sym=     1a
Ene=  -0.771581328213689     
Spin= Alpha
Occup=     2.00000000
           1 -9.395314917718854E-003
           2 -2.033921590166281E-003
           3  3.166120188279082E-003
           4 -5.152793163623422E-004
           5  3.702029860449281E-003
           6  4.331019315077738E-003
           7 -1.473966657700838E-002
           8  3.063658853419787E-003
           9  6.706619097569337E-002
          10  8.351931657366175E-003
          11 -6.438849759030227E-002
          12  1.448277911535150E-002
          13  0.913849849677410     
          14  2.073420792498080E-002
          15 -3.645849475326918E-002
          16  7.646454605534684E-003
          17  3.923155704616502E-004
          18  7.106074023215845E-003
          19 -7.498389593677495E-003
          20 -5.374861272172834E-003
          21  4.831828802726618E-004
          22 -4.111514365507514E-003
          23  9.522278621176739E-002
          24 -1.971106206739525E-003
          25  7.177416694582399E-002
          26 -1.704306367207099E-002
          27  6.796322536842037E-002
          28  4.385030995753527E-002
          29 -1.829166831301844E-003
          30 -4.049962225752217E-003
          31  5.728226276385266E-003
          32  5.224906095298855E-003
          33  4.324437499178121E-003
          34 -1.551763421845866E-003
          35 -4.768662243428965E-004
          36  2.881490380880956E-004
          37  5.307752624489753E-005
          38 -4.108002732791901E-005
          39 -3.256389553162723E-004
          40 -7.829690893362697E-008
          41  3.934781475879249E-005
          42 -8.806531214683369E-006
          43 -6.965139543160922E-005
          44  6.479527491659914E-004
          45 -3.526972861739063E-004
          46  1.710150743330714E-005
          47  1.329447304377577E-002
          48  8.360328615076585E-003
          49 -8.212302570802842E-003
          50  1.090570594698146E-003
          51 -2.180802429068991E-002
          52 -1.253405785605695E-002
          53 -6.244277028516474E-005
          54 -3.008740539723133E-005
          55 -2.663563795136564E-004
Sym=     2a
Ene=  -0.727936706905576     
Spin= Alpha
Occup=     2.00000000
           1 -0.190724214011339     
           2 -6.181982261484838E-002
           3  0.113104584591305     
           4 -1.998495467335551E-002
           5 -0.385077386858196     
           6 -0.148784365816828     
           7  8.270842454827211E-003
           8  1.339066380757393E-002
           9 -0.589092569563358     
          10  0.178262539854270     
          11 -6.143804620644219E-002
          12 -4.611429210103715E-003
          13  0.117461169648779     
          14  2.945669598549956E-002
          15 -7.368928924197390E-002
          16  1.460760197633442E-002
          17  1.310756370738325E-002
          18 -2.436669631823617E-002
          19  1.125913261085293E-002
          20  6.447188776873379E-003
          21 -1.485509228584650E-003
          22  9.588425249943657E-003
          23  6.505119620128903E-002
          24  4.295405840860436E-003
          25  2.188038770551748E-002
          26 -5.193521676288379E-003
          27 -1.551128602754233E-002
          28  5.523522595892612E-004
          29 -2.824254024481433E-002
          30  6.656457009163755E-003
          31  4.315296262040271E-003
          32  3.627929959618587E-004
          33 -1.790029269657566E-003
          34  3.958082141386981E-004
          35  1.788601275506559E-003
          36  1.712509576074363E-004
          37 -1.139929260520137E-004
          38  1.021759727995232E-005
          39  2.121684934949661E-003
          40 -7.186676521465113E-004
          41 -1.816992823973077E-004
          42  1.195212671219121E-004
          43 -6.322789431870859E-003
          44 -1.258596730757558E-002
          45 -1.683312301205146E-003
          46  1.724864328932505E-003
          47 -7.967618408188276E-002
          48 -5.228448134532757E-002
          49 -3.238678557843725E-002
          50  1.318485750011183E-002
          51  8.991928273081406E-003
          52 -1.061641684243617E-003
          53  1.690624714322856E-004
          54  2.276192682785018E-004
          55 -6.634831169334767E-004
Sym=     3a
Ene=  -0.704437291586651     
Spin= Alpha
Occup=     2.00000000
           1  0.517572588602308     
           2  5.762080776672927E-003
           3 -0.143159126319066     
           4  3.284628015507348E-002
           5  0.205155040203910     
           6 -0.154063535352366     
           7  0.220528764060457     
           8 -3.522743559162245E-002
           9 -0.319517809544533     
          10 -1.994173418523963E-002
          11  7.969738740232755E-002
          12 -1.667375970632315E-002
          13  1.391131047873756E-002
          14  1.741234160213305E-002
          15 -0.129470765868214     
          16  2.914042760627675E-002
          17 -3.866601088078698E-003
          18  1.351117355004826E-002
          19 -9.644572461969559E-003
          20 -2.738934698157586E-003
          21 -1.493286879108035E-004
          22 -6.222786869973534E-003
          23  0.358466111707126     
          24  2.667752408667464E-002
          25 -1.866436944949348E-003
          26  1.539147377377269E-003
          27 -2.750460980381029E-002
          28 -1.476968554472462E-003
          29 -1.003833862703797E-002
          30  2.552058529063902E-003
          31 -7.937905134232542E-003
          32  2.924887258709273E-004
          33 -5.398205513676761E-003
          34  1.251581598874239E-003
          35 -4.954736981624804E-003
          36 -2.062654154167229E-003
          37 -9.223812296033122E-004
          38  4.369581692256640E-004
          39 -1.751655079003639E-003
          40  4.512752899936982E-004
          41  2.693775219298476E-003
          42 -6.862088235218736E-004
          43  1.909379387616912E-002
          44  1.311059348443782E-002
          45  8.497700767131244E-003
          46 -3.386518539603262E-003
          47  2.646669732168739E-002
          48 -9.415244122696583E-003
          49  5.208537874677324E-002
          50 -1.128554222941764E-002
          51  7.827707306702542E-002
          52 -7.669175459556228E-004
          53 -5.969175725223770E-004
          54 -2.619946884842629E-004
          55  5.334237717970718E-003
Sym=     4a
Ene=  -0.696954851923963     
Spin= Alpha
Occup=     2.00000000
           1  0.226571415101298     
           2 -2.213591616263201E-002
           3 -6.063400702680176E-002
           4  1.656241044991939E-002
           5  7.857165900466243E-002
           6 -0.132365423376402     
           7  6.635849122330159E-002
           8 -1.316978922622823E-003
           9 -0.232980476135154     
          10  1.049378613637532E-002
          11 -3.932192375604541E-002
          12  8.256545246303494E-003
          13  0.171376026975242     
          14 -1.948745234920124E-002
          15  7.731127017165225E-002
          16 -1.643770423822186E-002
          17  4.634197507057590E-002
          18 -7.097484669056393E-002
          19  2.463287161998804E-002
          20 -7.129182844794493E-003
          21 -2.754434065757952E-004
          22  2.809612455529268E-002
          23 -0.643646040250848     
          24 -5.696288715722703E-002
          25  7.209799138101952E-002
          26 -1.942307893334223E-002
          27  0.168892912342667     
          28 -3.091997394983540E-002
          29  2.344178352077373E-002
          30 -2.144193541435220E-003
          31  9.498326420986751E-002
          32  1.158663689875240E-003
          33  4.423275141982373E-002
          34 -1.054861682237860E-002
          35  6.418020522991624E-002
          36  2.467561506977916E-002
          37  1.951395248044838E-002
          38 -7.222570745058259E-003
          39  5.899625416181922E-002
          40  3.095094426277199E-002
          41 -1.674093188606018E-003
          42 -2.846056970610049E-003
          43  9.125054940903107E-002
          44  3.615328262094859E-002
          45 -2.516847846982498E-002
          46  2.188169746933164E-003
          47  0.163962286542001     
          48 -8.258327824770878E-003
          49 -2.096936137803736E-002
          50  5.958222902422195E-003
          51 -0.161985238859970     
          52  1.083572573195790E-002
          53  7.770587684668000E-003
          54  6.703190905615045E-003
          55  1.343076695600198E-002
Sym=     5a
Ene=  -0.690306807507391     
Spin= Alpha
Occup=     2.00000000
           1  0.151022960915114     
           2  1.344125786167946E-002
           3 -1.210690447780895E-002
           4  1.331909456937219E-003
           5 -1.932252645539919E-002
           6  1.279789672337464E-002
           7  0.110503282516992     
           8 -2.742182737364024E-002
           9 -1.102128721650380E-002
          10  4.530503638902132E-002
          11 -1.549204605892280E-003
          12 -4.398797366568979E-003
          13  0.180345513767782     
          14  6.916467046171343E-002
          15  3.398306822981113E-002
          16 -1.536176042334047E-002
          17  6.112751573496040E-004
          18 -2.111439935147087E-002
          19  2.050312419412127E-002
          20 -4.536363082150155E-003
          21  3.920942047055668E-003
          22  1.243100835610015E-002
          23 -0.320933579347179     
          24 -2.047166362535297E-002
          25  5.172096775358963E-002
          26 -1.463402834021115E-002
          27 -0.295310090942980     
          28  0.124894174362727     
          29 -3.896360689358896E-002
          30 -4.223324219597931E-003
          31 -0.236254420318552     
          32  1.918918314689522E-002
          33 -9.978132732624542E-002
          34  2.146142847292665E-002
          35 -0.192683419111021     
          36 -6.272308016046728E-002
          37 -5.463159246273555E-002
          38  1.954912730023598E-002
          39 -0.174144209466644     
          40 -7.971287503015927E-002
          41  1.309043849365177E-002
          42  5.239788907340451E-003
          43 -0.199694973867288     
          44 -5.471957581717504E-002
          45  7.817846275256003E-002
          46 -1.283272789431882E-002
          47 -0.293512268256535     
          48  3.090989097258015E-002
          49  9.060855424285848E-002
          50 -2.487123251347618E-002
          51 -8.590129002552907E-002
          52 -3.635796122770052E-002
          53 -2.696205939015749E-002
          54 -2.288361252411463E-002
          55 -2.615960313849834E-002
Sym=     6a
Ene=  -0.663250098803725     
Spin= Alpha
Occup=     2.00000000
           1 -0.159460981441755     
           2 -5.433890358213976E-002
           3 -4.044839850483236E-002
           4  1.542027713225452E-002
           5  0.111066842210586     
           6 -0.124463366718472     
           7 -0.168784021328712     
           8  5.318508830634071E-002
           9 -0.158400635044450     
          10 -9.446012002883425E-002
          11 -6.591859703132383E-002
          12  2.561633744806004E-002
          13 -6.059927039910977E-002
          14 -5.534575579271567E-002
          15  1.161709271899928E-002
          16  3.208367001241561E-003
          17  3.916503780169919E-003
          18 -7.665781979983138E-003
          19  3.749278199813219E-003
          20  1.835113314456622E-003
          21 -4.114468883225029E-004
          22  3.132600100366763E-003
          23  5.959774435404944E-002
          24  1.434922076179405E-002
          25 -2.756947508008323E-002
          26  6.796689186381560E-003
          27  6.339625472220617E-002
          28  5.030065339862597E-002
          29  0.183869978525531     
          30 -4.900902688066265E-002
          31 -0.270582784446127     
          32  8.868590236478811E-002
          33 -1.790775834631480E-002
          34 -5.340701066146721E-003
          35 -0.328611025034829     
          36 -5.417427383555568E-002
          37 -3.374497863050956E-002
          38  1.365142282079579E-002
          39 -0.194023948756954     
          40 -2.830570010924576E-002
          41  8.869248783574138E-002
          42 -1.816924625211849E-002
          43  6.650462475518251E-002
          44  0.114783555724828     
          45  4.740447668595046E-002
          46 -2.339080537518439E-002
          47  0.344604645017900     
          48  6.056850415505461E-002
          49  3.243418951064982E-002
          50 -1.406361464308953E-002
          51  2.729944655700310E-002
          52 -6.317313422548217E-002
          53 -7.851442538842472E-002
          54 -4.433213460467628E-002
          55  2.174520043673145E-002
Sym=     7a
Ene=  -0.653834237508777     
Spin= Alpha
Occup=     2.00000000
           1 -5.399947485850335E-003
           2 -2.316629963588602E-002
           3 -1.002658940363590E-003
           4  2.682871647344988E-003
           5 -1.994686483592758E-002
           6 -3.591174638173687E-002
           7 -1.635292403668820E-004
           8  3.803249546218485E-003
           9  6.730912139596539E-002
          10  6.348535507558345E-002
          11 -3.787670813841660E-002
          12  2.269781330877013E-003
          13  9.850218547055525E-002
          14  0.120388685074698     
          15  3.784674579342840E-002
          16 -2.138810204983693E-002
          17 -1.490144823425283E-002
          18  1.143549731799684E-002
          19  3.465950916255995E-003
          20 -5.738751670147466E-003
          21  3.712733196460900E-003
          22 -1.695143326044821E-003
          23 -3.906339582872646E-002
          24  3.946369068316075E-002
          25 -3.674208903105252E-003
          26 -2.508924121880919E-003
          27 -0.303062921270481     
          28  2.766384362113596E-002
          29  9.403194663371210E-002
          30 -2.558987332347805E-002
          31 -0.278275186333251     
          32 -8.549656819073367E-002
          33 -5.031217950711783E-002
          34  2.070815586689066E-002
          35  7.071539986778896E-002
          36 -0.114529457647409     
          37  0.108670573792053     
          38 -1.376468562731858E-002
          39  0.356070827955911     
          40  5.610500415944584E-002
          41  5.196032319475742E-002
          42 -1.818791457855536E-002
          43  0.346539006357222     
          44 -4.452281600342461E-002
          45 -7.552327875085034E-002
          46  2.267063751781641E-002
          47  5.311364590427801E-002
          48 -0.139794949053618     
          49  9.062196955770428E-002
          50 -6.807749919816529E-003
          51  7.329391102197619E-003
          52 -8.203487319415731E-002
          53  1.776414237977885E-002
          54  9.434036669130093E-002
          55  8.489115343890460E-002
Sym=     8a
Ene=  -0.626405218152679     
Spin= Alpha
Occup=     2.00000000
           1 -0.252404943869992     
           2 -5.833024413152020E-003
           3 -0.116305272752446     
           4  2.800089190645381E-002
           5  0.223366878141842     
           6 -5.223983323103390E-002
           7 -0.167323883328487     
           8  4.504371479763383E-002
           9 -0.277273292611230     
          10 -0.263989637974620     
          11  1.218363260516972E-003
          12  2.753816570057858E-002
          13  5.677016997010974E-002
          14  1.397487603197011E-002
          15 -8.751208009986258E-002
          16  1.912237080524621E-002
          17  1.189259411790733E-002
          18 -3.189434177530882E-002
          19  2.000174765740149E-002
          20  1.202324259669463E-004
          21  1.412771201210026E-003
          22  1.514766917422823E-002
          23 -2.578319944671125E-002
          24  1.680843133932769E-003
          25  5.514776069669886E-002
          26 -1.479617948019405E-002
          27 -0.162394199705252     
          28  7.147508855598048E-002
          29  6.732295479673646E-002
          30 -2.377840528889830E-002
          31 -2.053899038901728E-002
          32 -0.167122640739591     
          33 -7.005740644170308E-002
          34  3.424758597740497E-002
          35  0.334292233977203     
          36 -5.778879582088258E-002
          37 -1.846990167798391E-002
          38  1.056216293827577E-002
          39  6.257104905134282E-002
          40 -4.157977918033978E-002
          41 -0.187144173681804     
          42  4.891266240232558E-002
          43 -0.210890164645308     
          44  1.100602605456089E-002
          45  2.582731748612910E-002
          46 -7.328661516925157E-003
          47  3.830213030566443E-002
          48  0.173588928370790     
          49  0.129203609914894     
          50 -4.914475001096343E-002
          51 -1.708826749794145E-002
          52 -4.176129987996185E-003
          53  0.144582784320411     
          54  3.069018349083644E-002
          55 -6.081899927321218E-002
Sym=     9a
Ene=  -0.617771986338441     
Spin= Alpha
Occup=     2.00000000
           1  0.184941643470713     
           2 -0.139018777921908     
           3  4.222497939717627E-002
           4  5.296403485868678E-003
           5 -9.510587223886419E-002
           6 -0.205274459623137     
           7 -8.682970961441772E-003
           8  2.466358246228573E-002
           9  0.187757701413671     
          10  0.283259020171370     
          11 -0.263608248900863     
          12  3.339351528055286E-002
          13  4.601237245162117E-003
          14  0.119884092136626     
          15  0.299515408560006     
          16 -8.004615185007488E-002
          17 -1.888486392862292E-002
          18  3.338499070795521E-002
          19 -1.450012677933229E-002
          20 -6.595408371509457E-003
          21  1.821427652683876E-003
          22 -1.419071867617848E-002
          23  2.055418537179883E-002
          24  0.141437735427678     
          25 -0.218420127439094     
          26  5.136461021591211E-002
          27 -0.102697612799512     
          28 -5.732920033243828E-002
          29  8.589334646490200E-002
          30 -1.380141539157104E-002
          31  5.878029197907249E-002
          32 -0.144018640494630     
          33 -3.261792870542905E-002
          34  2.327667865609561E-002
          35  0.162200328373524     
          36  5.687038205396560E-002
          37 -8.697161439703173E-002
          38  1.479966770225241E-002
          39 -0.180775366252034     
          40  1.657760716398210E-002
          41 -9.899492779893321E-002
          42  2.181580679218013E-002
          43 -9.038238471604049E-002
          44  0.130817872671391     
          45  5.266786502293688E-002
          46 -2.621803495767714E-002
          47  0.119584780438399     
          48 -7.808340124760547E-003
          49  4.377750522747642E-002
          50 -9.178986911903254E-003
          51  0.133108629047883     
          52  6.363564425388257E-003
          53  7.583543887861990E-002
          54 -8.030866949218217E-002
          55 -2.591999668857584E-002
Sym=    10a
Ene=  -0.609254361529152     
Spin= Alpha
Occup=     2.00000000
           1  0.216593758770611     
           2  1.227418631666834E-003
           3  9.552775333453327E-002
           4 -2.211634467435319E-002
           5 -8.802104198988671E-002
           6  1.349547560419726E-002
           7  4.137142867556024E-002
           8 -1.036700395799368E-002
           9 -1.510150943507345E-002
          10  4.589858025893952E-002
          11 -8.698157777857284E-002
          12  1.657282636780964E-002
          13 -8.774938299104557E-002
          14 -0.159170405702021     
          15  0.136253781928075     
          16 -1.335174532129148E-002
          17  3.689996255956939E-003
          18 -2.652065934743746E-003
          19 -1.037930321213194E-003
          20  3.657455748754891E-003
          21 -1.606818816778598E-003
          22 -5.207466265108179E-004
          23  4.734687950313449E-002
          24  4.987088418476741E-002
          25 -0.130372690932267     
          26  3.396847747472409E-002
          27  0.238608514316049     
          28  7.299961705638446E-002
          29  0.141658163833657     
          30 -4.079736991158332E-002
          31 -0.243395904682731     
          32  6.104973758778352E-002
          33  0.104259497145810     
          34 -3.125431194583026E-002
          35  1.977352837486685E-002
          36 -0.179251173312496     
          37  0.141537463114742     
          38 -1.469948383899327E-002
          39  0.215294819221975     
          40 -7.672425549484860E-002
          41 -0.111719868192335     
          42  3.473298813200461E-002
          43 -0.247373031175028     
          44 -9.284816564081796E-002
          45 -9.726784712799412E-002
          46  3.301042090224705E-002
          47 -4.089540925087176E-002
          48  0.175305020250058     
          49 -0.206361749300596     
          50  3.086780703271728E-002
          51  7.267852481088226E-002
          52 -0.127878490811084     
          53  8.001868675817011E-003
          54  0.110707323395706     
          55 -0.117361266594327     
Sym=    11a
Ene=  -0.586784085217273     
Spin= Alpha
Occup=     2.00000000
           1  1.040494234572223E-002
           2 -0.149482015952424     
           3 -4.899635898259765E-002
           4  2.708816265823807E-002
           5  5.839915087248174E-002
           6 -0.186290154098414     
           7 -9.886353636869746E-002
           8  4.249968198797911E-002
           9  1.140448305985086E-002
          10  2.964746680921207E-002
          11 -0.261427671713103     
          12  5.783219971010715E-002
          13 -0.118396629923056     
          14 -0.264728455463700     
          15  0.184886096052092     
          16 -1.998381243048173E-002
          17 -1.865806549862063E-002
          18  3.347545465836965E-002
          19 -1.481738915974902E-002
          20  2.364736173678566E-002
          21 -5.819852364797842E-003
          22 -1.563348788604169E-002
          23  0.146419266573044     
          24 -0.207232605854508     