[Molden Format]
[Title]
[Atoms] AU
O      1     8 -0.47846864385730E+01  0.27140007126157E+00 -0.25422113284525E+00
C      2     6 -0.30440272182300E+01  0.17211053960259E+01 -0.43731966456015E+00
O      3     8 -0.33512760506365E+01  0.41812791110203E+01 -0.88431096408193E+00
C      4     6 -0.38094844240200E+00  0.92082673970591E+00 -0.19274639593782E+00
C      5     6  0.16562276365885E+01  0.25623788692381E+01 -0.46400863732431E+00
C      6     6  0.40925729606079E+01  0.16453338116665E+01 -0.21369791867706E+00
C      7     6  0.45121814685147E+01 -0.88937347093609E+00  0.30732892921340E+00
C      8     6  0.24856962352551E+01 -0.25307692298197E+01  0.58257860431626E+00
C      9     6  0.64959583180490E-01 -0.16032782457545E+01  0.32617521876633E+00
I     10    53 -0.29088301750780E+01 -0.43375666103418E+01  0.79566327117454E+00
O     11     8 -0.45674823303053E+01 -0.45165416240725E+01 -0.20953019300056E+01
O     12     8 -0.48012954146300E+01 -0.33391871776659E+01  0.33593254169347E+01
H     13     1 -0.51385010403172E+01  0.45727200682458E+01 -0.10260936985901E+01
H     14     1  0.13037924174572E+01  0.45289064071161E+01 -0.86881151410732E+00
H     15     1  0.56758284319008E+01  0.29136397145361E+01 -0.42602417973110E+00
H     16     1  0.64172892214090E+01 -0.15916724294724E+01  0.50073495986016E+00
H     17     1  0.27684991552582E+01 -0.45092014007538E+01  0.99072963559527E+00
[GTO]
           1 0
 s           4   1.00000000000000     
   69.1379619061966      -0.204787563700778     
   11.9061291327073      -0.249970231368273     
  0.956708277443407       0.400258802406396     
  0.364625204960737       0.159522066676936     
 p           4   1.00000000000000     
   8.21241932577816        1.13215567991868     
   2.12935769970981        1.04768407822548     
  0.750664482023609       0.549565082171590     
  0.298852465432831       8.290848659276662E-002
 
           2 0
 s           4   1.00000000000000     
   51.0493630955799      -0.163120632101274     
   8.79112274068875      -0.199110245810007     
  0.706404222589298       0.318820477536558     
  0.269228134134116       0.127065041842404     
 p           4   1.00000000000000     
   5.82636561408000       0.737164515452096     
   1.51068960187200       0.682163716148503     
  0.532564832880000       0.357830539292537     
  0.212023236906000       5.398303027584788E-002
 
           3 0
 s           4   1.00000000000000     
   69.1379619061966      -0.204787563700778     
   11.9061291327073      -0.249970231368273     
  0.956708277443407       0.400258802406396     
  0.364625204960737       0.159522066676936     
 p           4   1.00000000000000     
   8.21241932577816        1.13215567991868     
   2.12935769970981        1.04768407822548     
  0.750664482023609       0.549565082171590     
  0.298852465432831       8.290848659276662E-002
 
           4 0
 s           4   1.00000000000000     
   51.0493630955799      -0.163120632101274     
   8.79112274068875      -0.199110245810007     
  0.706404222589298       0.318820477536558     
  0.269228134134116       0.127065041842404     
 p           4   1.00000000000000     
   5.82636561408000       0.737164515452096     
   1.51068960187200       0.682163716148503     
  0.532564832880000       0.357830539292537     
  0.212023236906000       5.398303027584788E-002
 
           5 0
 s           4   1.00000000000000     
   51.0493630955799      -0.163120632101274     
   8.79112274068875      -0.199110245810007     
  0.706404222589298       0.318820477536558     
  0.269228134134116       0.127065041842404     
 p           4   1.00000000000000     
   5.82636561408000       0.737164515452096     
   1.51068960187200       0.682163716148503     
  0.532564832880000       0.357830539292537     
  0.212023236906000       5.398303027584788E-002
 
           6 0
 s           4   1.00000000000000     
   51.0493630955799      -0.163120632101274     
   8.79112274068875      -0.199110245810007     
  0.706404222589298       0.318820477536558     
  0.269228134134116       0.127065041842404     
 p           4   1.00000000000000     
   5.82636561408000       0.737164515452096     
   1.51068960187200       0.682163716148503     
  0.532564832880000       0.357830539292537     
  0.212023236906000       5.398303027584788E-002
 
           7 0
 s           4   1.00000000000000     
   51.0493630955799      -0.163120632101274     
   8.79112274068875      -0.199110245810007     
  0.706404222589298       0.318820477536558     
  0.269228134134116       0.127065041842404     
 p           4   1.00000000000000     
   5.82636561408000       0.737164515452096     
   1.51068960187200       0.682163716148503     
  0.532564832880000       0.357830539292537     
  0.212023236906000       5.398303027584788E-002
 
           8 0
 s           4   1.00000000000000     
   51.0493630955799      -0.163120632101274     
   8.79112274068875      -0.199110245810007     
  0.706404222589298       0.318820477536558     
  0.269228134134116       0.127065041842404     
 p           4   1.00000000000000     
   5.82636561408000       0.737164515452096     
   1.51068960187200       0.682163716148503     
  0.532564832880000       0.357830539292537     
  0.212023236906000       5.398303027584788E-002
 
           9 0
 s           4   1.00000000000000     
   51.0493630955799      -0.163120632101274     
   8.79112274068875      -0.199110245810007     
  0.706404222589298       0.318820477536558     
  0.269228134134116       0.127065041842404     
 p           4   1.00000000000000     
   5.82636561408000       0.737164515452096     
   1.51068960187200       0.682163716148503     
  0.532564832880000       0.357830539292537     
  0.212023236906000       5.398303027584788E-002
 
          10 0
 s           4   1.00000000000000     
   4.01162386227179       2.229639191655230E-002
  0.554506456195055      -0.256763535808992     
  0.160705703437245       0.213356424819949     
  9.209356190917939E-002  2.067164842935832E-002
 p           4   1.00000000000000     
   2.11164369304120      -6.536425560776801E-002
  0.979856670271422      -0.189095136292427     
  0.263422952797140       0.202666144590931     
  0.146548718279452       4.406395305437869E-002
 d           3   1.00000000000000     
   1.40527137125187      -6.001000641404181E-002
  0.209619811637925       6.305531614656772E-002
  0.102798220867168       1.430952821123767E-002
 
          11 0
 s           4   1.00000000000000     
   69.1379619061966      -0.204787563700778     
   11.9061291327073      -0.249970231368273     
  0.956708277443407       0.400258802406396     
  0.364625204960737       0.159522066676936     
 p           4   1.00000000000000     
   8.21241932577816        1.13215567991868     
   2.12935769970981        1.04768407822548     
  0.750664482023609       0.549565082171590     
  0.298852465432831       8.290848659276662E-002
 
          12 0
 s           4   1.00000000000000     
   69.1379619061966      -0.204787563700778     
   11.9061291327073      -0.249970231368273     
  0.956708277443407       0.400258802406396     
  0.364625204960737       0.159522066676936     
 p           4   1.00000000000000     
   8.21241932577816        1.13215567991868     
   2.12935769970981        1.04768407822548     
  0.750664482023609       0.549565082171590     
  0.298852465432831       8.290848659276662E-002
 
          13 0
 s           3   1.00000000000000     
   3.37022769753360       0.273591105889083     
  0.613891182214980       0.264605406538605     
  0.166142911484160       8.246594753408230E-002
 
          14 0
 s           3   1.00000000000000     
   3.37022769753360       0.273591105889083     
  0.613891182214980       0.264605406538605     
  0.166142911484160       8.246594753408230E-002
 
          15 0
 s           3   1.00000000000000     
   3.37022769753360       0.273591105889083     
  0.613891182214980       0.264605406538605     
  0.166142911484160       8.246594753408230E-002
 
          16 0
 s           3   1.00000000000000     
   3.37022769753360       0.273591105889083     
  0.613891182214980       0.264605406538605     
  0.166142911484160       8.246594753408230E-002
 
          17 0
 s           3   1.00000000000000     
   3.37022769753360       0.273591105889083     
  0.613891182214980       0.264605406538605     
  0.166142911484160       8.246594753408230E-002
 
[MO]
Sym=     1a
Ene=  -0.773954526174932     
Spin= Alpha
Occup=     2.00000000
           1  0.182410183379712     
           2  6.964997158695567E-002
           3  0.115647211828537     
           4 -1.769965867355599E-002
           5  0.345708028864174     
           6 -7.780536109578420E-002
           7  0.143948306392775     
           8 -2.900847896703001E-002
           9  0.631453063945078     
          10 -6.686746750965641E-003
          11 -0.145199163879478     
          12  2.495194382903448E-002
          13  4.676140361772913E-002
          14 -4.342130107414688E-002
          15  2.628246846894767E-002
          16 -6.409431260293989E-003
          17  8.024446936103340E-003
          18 -1.174409261609907E-002
          19 -7.109094695315427E-004
          20 -1.653414917126492E-004
          21 -1.293899731950309E-003
          22 -4.756143843414104E-004
          23  2.144517466935050E-004
          24 -5.518155799405346E-005
          25 -1.098990916223147E-003
          26  3.476514309787377E-004
          27 -3.294757874807393E-005
          28  1.636562886924259E-005
          29 -2.244692241137652E-003
          30  2.807888166539249E-004
          31 -3.710816174836427E-004
          32  8.306607312130161E-005
          33 -3.009486525558309E-004
          34 -3.949581435526065E-003
          35  6.126575385370979E-003
          36 -1.328343907532249E-003
          37 -1.929285880545087E-002
          38  7.946603606244247E-004
          39  7.851980768944008E-004
          40 -9.866041552049219E-005
          41 -2.402212268680028E-003
          42  5.750553277237965E-003
          43 -3.348341008557937E-003
          44 -9.626382789836424E-004
          45  2.773264039099899E-004
          46 -2.367070964496717E-003
          47 -1.520221772112470E-003
          48 -4.178262495378244E-004
          49 -8.205210015282537E-004
          50 -1.297724561453918E-003
          51 -1.520551695203652E-003
          52 -5.268325565568034E-004
          53 -1.971505794119196E-004
          54  1.463812058610398E-003
          55  9.561049254729380E-002
          56  7.552085083127031E-004
          57  2.063117536305195E-005
          58 -1.803372519574409E-005
          59  4.072477084904288E-004
Sym=     2a
Ene=  -0.747686955070162     
Spin= Alpha
Occup=     2.00000000
           1  0.558852734077204     
           2  0.159172945600161     
           3  0.108442532574367     
           4 -1.295040118606440E-002
           5  0.250899317232467     
           6 -0.148786903485837     
           7 -0.248723008957366     
           8  3.742897138578025E-002
           9 -0.396207024849069     
          10 -2.736352509924162E-002
          11 -6.691438053136858E-002
          12  1.077911153741252E-002
          13  5.186484775497974E-002
          14 -4.728701725609372E-002
          15 -2.188181873446060E-002
          16  2.082182873212583E-003
          17 -5.529369860061951E-003
          18 -1.251296537859752E-003
          19 -4.070638430920507E-003
          20  6.622994570742565E-004
          21 -1.978898357362461E-003
          22  5.987899515178152E-004
          23 -6.173565205879201E-004
          24  1.267893337559795E-004
          25 -5.239187144033752E-004
          26 -4.072283040411953E-004
          27 -1.847125719052126E-004
          28  1.959009223263135E-005
          29  9.227460388877500E-004
          30 -2.906413094953650E-003
          31  1.926047696016782E-003
          32 -4.906880705570962E-004
          33  2.706276971758840E-002
          34 -1.498778436249409E-002
          35  1.655655556505257E-002
          36 -3.926626448574545E-003
          37 -2.510137678548592E-002
          38  2.301156208210555E-003
          39  1.712852328704822E-002
          40 -3.451145318428024E-003
          41  1.100909681757299E-003
          42  6.044921312229614E-004
          43 -1.705401812980261E-003
          44 -5.021909010051858E-003
          45  1.215554631947493E-003
          46 -8.611512049425638E-004
          47 -3.024334039661286E-003
          48 -2.029861163980068E-004
          49  1.898545617008374E-003
          50 -1.616707416601320E-003
          51 -2.933011992078392E-003
          52 -2.343339987472406E-004
          53  2.522296203849477E-003
          54  5.757207516010567E-004
          55 -6.307113860185723E-002
          56 -2.326639345496870E-003
          57 -1.604590541820903E-004
          58 -5.932870203238352E-005
          59  2.730432090605668E-004
Sym=     3a
Ene=  -0.734400335288452     
Spin= Alpha
Occup=     2.00000000
           1 -2.548985975757930E-002
           2  1.695580366781693E-002
           3 -2.422325547051857E-002
           4  5.736173859536465E-003
           5  1.567057601299863E-002
           6  2.759646866985656E-002
           7 -1.370686540737028E-003
           8  1.744529295192089E-003
           9  2.270600438063800E-002
          10  1.138623334108131E-002
          11 -2.071011088588148E-003
          12  9.279474534235700E-004
          13  5.244754756840820E-002
          14 -1.099851655051158E-003
          15 -2.053798610488758E-002
          16  4.169445372765692E-003
          17  1.381776277207629E-002
          18 -5.669703489188277E-003
          19 -8.622381360854940E-003
          20  1.577820502495966E-003
          21  6.363340170017650E-003
          22 -4.336454888826387E-003
          23 -2.745601903114861E-003
          24  4.348901201963255E-004
          25  8.872495756570040E-003
          26 -7.951644142633059E-003
          27 -8.442056211552034E-004
          28 -4.327852404840966E-005
          29  4.015866398381512E-002
          30 -2.563894954458451E-002
          31  6.888086914555947E-003
          32 -2.070761321528863E-003
          33  0.125780022777712     
          34 -2.552951181749438E-002
          35 -2.728430985260930E-002
          36  4.985321100628814E-003
          37  0.853132769037367     
          38  9.319500737695581E-003
          39 -2.139075249603732E-002
          40  4.928050467173112E-003
          41  3.058037437258175E-003
          42  3.639544411506033E-003
          43 -6.697581848764208E-003
          44  1.101482984700237E-002
          45 -1.932360589582905E-003
          46 -2.103080496354190E-003
          47  0.105096064625385     
          48  4.296038663486995E-002
          49 -3.137342831486241E-003
          50  6.241855541056385E-002
          51  0.105119945612472     
          52  4.780384485398061E-002
          53 -2.768680849564906E-002
          54 -5.184779252536322E-002
          55 -6.608942580447157E-004
          56  1.596645966560487E-003
          57  3.562139487257477E-004
          58  3.824661940267300E-004
          59 -5.592362018985551E-003
Sym=     4a
Ene=  -0.708969113533071     
Spin= Alpha
Occup=     2.00000000
           1 -0.148266161329499     
           2  5.698946740212431E-002
           3 -2.552814751731457E-002
           4  6.682954391526765E-003
           5  0.148578409171863     
           6  0.203192012994918     
           7  6.430033368565767E-003
           8  6.784359482423782E-003
           9 -6.500532819567553E-002
          10  0.166431661017275     
          11 -0.101347294183043     
          12  2.445734424370661E-002
          13  0.397349700121939     
          14  2.585803023929316E-002
          15 -5.244691864734309E-003
          16  1.891900384223073E-003
          17  0.230508334300589     
          18 -4.899815317382313E-002
          19 -8.959293037162412E-002
          20  1.654797331909333E-002
          21  0.138324894449983     
          22 -6.332919776862275E-002
          23 -3.196346500229184E-002
          24  4.693103977469862E-003
          25  0.131461522899674     
          26 -6.176198608738631E-002
          27  1.747658243143144E-002
          28 -5.184374061427602E-003
          29  0.160735911821979     
          30 -2.832921309660279E-002
          31  7.335308779850197E-002
          32 -1.554797043989870E-002
          33  0.249410711684302     
          34  4.912331132642855E-002
          35  0.113893389099591     
          36 -2.133801601271887E-002
          37 -0.139780869229105     
          38  4.138781895385242E-002
          39  4.017451090546175E-002
          40 -6.798678527196822E-003
          41  8.086450016365222E-003
          42  1.849295532536238E-003
          43 -9.935745548901460E-003
          44  1.501928289039231E-002
          45 -2.417687518317643E-003
          46 -2.388632896501504E-003
          47 -4.355443506052807E-002
          48 -7.096156580857701E-003
          49  4.208594812274267E-003
          50 -1.676101028058046E-002
          51 -4.344828821871588E-002
          52 -8.312751099305038E-003
          53  1.053255753338284E-002
          54  1.291325529270970E-002
          55 -9.425375672650108E-002
          56  3.986150185859691E-002
          57  1.656130427058973E-002
          58  1.608156531961491E-002
          59  2.176374309421310E-002
Sym=     5a
Ene=  -0.692875438802595     
Spin= Alpha
Occup=     2.00000000
           1 -0.180330903241258     
           2  7.007561737428195E-002
           3 -7.299608304983415E-003
           4  4.245353382055772E-003
           5  0.203644756345179     
           6  0.189417703301612     
           7  6.317553784445212E-002
           8 -3.764238660973462E-003
           9 -0.134705452451757     
          10  0.256587227261308     
          11 -0.213642487110507     
          12  4.798476201179670E-002
          13  0.101836016338476     
          14 -0.140074195195537     
          15  9.902481016099880E-002
          16 -2.352931334203713E-002
          17 -5.023132986781061E-002
          18 -9.125279999269306E-002
          19  4.581968770832487E-002
          20 -1.165029218538634E-002
          21 -0.187281930044955     
          22  2.804921153830053E-002
          23  6.551120503446523E-002
          24 -1.241692819045839E-002
          25 -0.246385519708897     
          26  8.224652392921795E-002
          27 -1.187659152143995E-002
          28  4.593369086325309E-003
          29 -0.272135608889508     
          30  3.111475796084469E-003
          31 -8.094862059533517E-002
          32  1.638994923900013E-002
          33 -0.166809900076765     
          34 -0.120667534906493     
          35  2.575912702648370E-002
          36 -8.639185679052412E-003
          37  3.694038813777209E-002
          38 -3.900767131128000E-002
          39 -1.656506486488045E-002
          40  2.338968910216694E-003
          41 -5.630720031489669E-003
          42 -3.742044855165007E-003
          43  9.372764886654675E-003
          44 -6.079927951969095E-003
          45  5.745021587330292E-004
          46  3.195346007778851E-003
          47  2.904990810831320E-002
          48  1.958125607170117E-003
          49 -2.516597322005822E-003
          50  7.873561572148779E-003
          51  2.957546912930931E-002
          52  2.710165091963429E-003
          53 -5.567594062566476E-003
          54 -5.982379575712814E-003
          55 -0.171067314493881     
          56  9.954571509509121E-003
          57 -3.160568477421237E-002
          58 -4.288276506279001E-002
          59 -5.086840734865614E-002
Sym=     6a
Ene=  -0.670167520913908     
Spin= Alpha
Occup=     2.00000000
           1  4.186099708282668E-002
           2 -3.302707834801831E-002
           3  3.025257716898464E-002
           4 -7.246231019550828E-003
           5  2.062012322712996E-002
           6 -4.286919584778127E-002
           7  6.250484429236507E-002
           8 -1.424159670648041E-002
           9 -7.191044366849586E-002
          10  5.963082910549679E-002
          11 -9.870571659111541E-002
          12  1.893569184606964E-002
          13 -8.125273093652283E-002
          14  6.155066724631646E-002
          15  0.154239142799163     
          16 -2.924290398028400E-002
          17  0.269861298086602     
          18  0.106860809179599     
          19 -1.964408202199623E-002
          20  6.826244418480521E-003
          21  0.368365514162666     
          22 -5.238743334734001E-002
          23 -1.734228793016153E-002
          24  2.096137968058145E-003
          25  0.185368260431205     
          26  1.709703262873110E-002
          27  0.124717598419044     
          28 -2.456675370468829E-002
          29 -0.153218865519722     
          30  0.129785336816251     
          31  1.906458805460928E-002
          32 -2.303977800264852E-004
          33 -0.326720442842269     
          34 -2.042626446549481E-002
          35  8.697729476911709E-003
          36 -2.578712975263965E-003
          37  6.639538824953499E-002
          38 -0.151149723099784     
          39 -7.968929692135779E-002
          40  1.195143154107652E-002
          41 -1.068318923953210E-002
          42 -7.249359892270189E-003
          43  1.793254913180229E-002
          44 -1.400605750867053E-002
          45  1.363058376801417E-003
          46  6.073077268045166E-003
          47  0.128917946122292     
          48 -7.058755826922779E-004
          49 -1.209091961930667E-002
          50  2.546449921931595E-002
          51  0.131905102816656     
          52  1.576569989893900E-003
          53 -2.159861610204129E-002
          54 -1.829722218023097E-002
          55 -5.807052332690894E-002
          56  7.011161148756219E-002
          57  9.513904232033116E-002
          58  4.713019206909261E-002
          59 -4.782178785273301E-002
Sym=     7a
Ene=  -0.665124665723413     
Spin= Alpha
Occup=     2.00000000
           1 -2.636221052335512E-003
           2  6.282900469318376E-004
           3 -9.092956125046971E-004
           4 -1.945452346556452E-002
           5  3.788303726706515E-003
           6 -3.083622202132996E-004
           7  2.247186482249597E-003
           8 -1.396392732976052E-002
           9 -4.614731662845760E-003
          10  5.586420034661001E-003
          11 -1.007137230229730E-002
          12 -5.314224139243302E-003
          13 -6.338819698721468E-003
          14 -1.742471752002021E-003
          15 -2.265947408362059E-004
          16 -9.662172929283850E-003
          17 -4.720048100682881E-003
          18  8.900219262192097E-004
          19  8.719594637514689E-004
          20 -2.274873521298295E-003
          21  3.818149757919531E-004
          22  1.821594426400825E-003
          23 -2.439078850941632E-003
          24 -3.673906652109714E-004
          25  6.757811431814202E-003
          26 -1.078656403924418E-003
          27 -1.803243528458873E-003
          28 -1.453120309383040E-003
          29  7.245790778979115E-003
          30  1.957761132555596E-003
          31 -1.300915927583652E-003
          32 -8.157983900922355E-003
          33 -1.614985017600319E-003
          34  3.723431323648749E-003
          35 -1.003732395347997E-002
          36 -2.818326601703913E-002
          37  1.311135800065155E-003
          38  1.661730028828408E-002
          39 -8.204252240535422E-002
          40 -0.372473381184989     
          41 -5.220251873376202E-003
          42 -2.935039030892638E-003
          43  8.155290904268839E-003
          44  1.589627708362003E-002
          45  7.138236785701803E-002
          46 -6.917273845706414E-003
          47  0.512110613771626     
          48  6.594611760125949E-002
          49 -1.337367485534092E-002
          50  3.187942785133485E-002
          51 -0.513612870528949     
          52 -6.790180423873490E-002
          53  2.331085936459010E-002
          54  1.825805591224520E-002
          55 -4.939239897069022E-003
          56 -9.350840012864235E-004
          57  1.148305933667747E-004
          58  1.953774111465288E-003
          59  2.368586161948242E-003
Sym=     8a
Ene=  -0.664001585450131     
Spin= Alpha
Occup=     2.00000000
           1 -0.118591215791448     
           2 -7.974818084493211E-004
           3  8.750361991515308E-002
           4 -1.476079847695870E-002
           5  0.134066798146645     
           6 -2.320656398624080E-002
           7  0.161547622287147     
           8 -2.856255154374947E-002
           9 -0.155723736409658     
          10  0.186769304422474     
          11 -0.311463049626714     
          12  6.337011469144721E-002
          13 -0.234157149139465     
          14 -9.244354746299079E-002
          15  2.647806756136903E-002
          16 -6.678713312014397E-003
          17 -0.239503210332761     
          18  2.147603688275145E-002
          19  4.895377066878128E-002
          20 -8.817593724687253E-003
          21 -2.739328982372751E-002
          22  8.457692717877885E-002
          23 -9.946333073620668E-002
          24  2.241371555490413E-002
          25  0.271078301142733     
          26 -4.701422116476587E-002
          27 -7.340677720967100E-002
          28  1.363047641094879E-002
          29  0.301087687096538     
          30  7.309203029028084E-002
          31  2.455767264877462E-002
          32 -2.599362790783251E-003
          33 -2.916818420446366E-002
          34  0.103085207928814     
          35 -0.135624099303120     
          36  3.129079493844655E-002
          37  2.894340134579200E-002
          38  2.852406153347714E-002
          39 -3.870200084395779E-002
          40  1.935266226655753E-002
          41  5.169883288578159E-003
          42 -3.008900331170887E-003
          43 -2.160982957407272E-003
          44  4.194741679913658E-003
          45 -2.626466803974728E-003
          46  7.031370417887466E-004
          47 -2.501146946759851E-002
          48  2.752277446306566E-004
          49 -8.457191843808325E-003
          50 -2.651739588497237E-003
          51  1.681543949214257E-003
          52  3.281013397013975E-003
          53 -7.836375149675391E-003
          54  5.081296209821086E-003
          55 -0.173761510457282     
          56 -5.433703189004382E-002
          57 -7.495547499880675E-003
          58  7.989749807388716E-002
          59  9.234135160829125E-002
Sym=     9a
Ene=  -0.639217538559848     
Spin= Alpha
Occup=     2.00000000
           1 -1.325252453803645E-002
           2  0.102173597015980     
           3 -0.112590348353804     
           4  2.515125636417302E-002
           5  1.489015637213326E-002
           6  0.149669185459248     
           7 -0.159843792898721     
           8  3.547423207119373E-002
           9  0.124616942930161     
          10 -2.701803867211590E-002
          11  0.222019409678870     
          12 -3.929153891630303E-002
          13  0.144574826575789     
          14 -0.123599192651670     
          15 -5.406167828851094E-002
          16  6.390912570524740E-003
          17 -0.224959172730405     
          18 -9.108785434026231E-002
          19 -3.310150716709574E-002
          20  3.945454612767967E-003
          21 -8.775187911907682E-002
          22  0.103519680846546     
          23 -0.143679019302376     
          24  3.162551546769932E-002
          25  0.258070485153143     
          26  2.256636429498558E-002
          27 -4.045861757653678E-002
          28  8.729897374218839E-003
          29 -9.017806342652667E-004
          30  0.168715892731703     
          31  6.563937416198348E-002
          32 -8.778215675526176E-003
          33 -9.705859727582777E-002
          34 -4.602094310226247E-002
          35  0.156543098893208     
          36 -3.374731785428234E-002
          37 -0.161377806754857     
          38 -0.243478418990424     
          39  5.135427411878073E-002
          40 -2.221050501560504E-002
          41 -4.729692380108651E-003
          42 -3.056909709303119E-002
          43  3.529878947313984E-002
          44 -8.504326878406347E-003
          45 -8.802201335460490E-005
          46  1.673741535786924E-002
          47  0.268245951484674     
          48 -2.335490485650482E-002
          49  8.914531010233637E-003
          50  6.181991841332744E-003
          51  0.265231860477532     
          52 -2.275807060603490E-002
          53  5.418782568152832E-003
          54 -1.120151504485124E-002
          55  7.704518700553692E-002
          56 -8.424030519315105E-002
          57 -3.592887301848744E-002
          58  0.106860267146927     
          59 -1.887748548115972E-002
Sym=    10a
Ene=  -0.632128008653620     
Spin= Alpha
Occup=     2.00000000
           1 -0.119923494742150     
           2  0.122310526360486     
           3 -4.450078535749487E-002
           4  1.596682299450309E-002
           5  5.097126483431186E-002
           6  9.429673728173749E-002
           7 -8.128341458707132E-002
           8  2.294506453443990E-002
           9  5.857339758825543E-002
          10  1.150153778238575E-003
          11  7.855270835788816E-002
          12 -9.851745420544478E-003
          13 -3.418182783493897E-002
          14 -0.167963846521292     
          15 -9.031950639842320E-002
          16  1.402154599277823E-002
          17 -0.173355582437566     
          18  0.109148452526936     
          19  9.846724170279288E-003
          20  1.312909858141958E-003
          21  0.255133435910185     
          22  0.133779371217313     
          23 -7.010665639195678E-002
          24  1.784496291989312E-002
          25  0.156386091197817     
          26  0.107898156908254     
          27  0.169627637396990     
          28 -3.108696914823658E-002
          29 -0.210030978414192     
          30  1.536121345676661E-002