[Molden Format]
[Title]
[Atoms] AU
C      1     6 -0.88851708801331E+01  0.12304320373067E+00  0.96923184983861E-01
O      2     8 -0.63083086943110E+01  0.76264809874526E+00 -0.33358002144831E+00
C      3     6 -0.46112909389999E+01 -0.93031312138440E+00  0.53627302909340E+00
O      4     8 -0.51173748716263E+01 -0.28607177105946E+01  0.15777539882086E+01
N      5     7 -0.22266428223869E+01 -0.45320889086905E-01 -0.67168945541884E-01
C      6     6  0.58674150244376E-01 -0.10954808550333E+01  0.65444086886169E+00
N      7     7  0.11015477503477E+00 -0.27014167236455E+01  0.24165527543055E+01
Cl     8    17  0.28211364318499E+01 -0.42306824725889E+01  0.31126142923002E+01
N      9     7  0.20786687000607E+01 -0.19491218579527E+00 -0.81492682192409E+00
C     10     6  0.44140829249015E+01  0.50872732607336E+00  0.90355797026376E-01
O     11     8  0.49600960597957E+01  0.79897511694062E+00  0.22632479133926E+01
O     12     8  0.59658634742290E+01  0.92374229245984E+00 -0.18841386098370E+01
C     13     6  0.84521137015713E+01  0.17134659316934E+01 -0.12353702499705E+01
H     14     1 -0.93940969597448E+01 -0.15625633718634E+01 -0.97740858648095E+00
H     15     1 -0.99822555880017E+01  0.17400792954927E+01 -0.53492341462845E+00
H     16     1 -0.92074939149131E+01 -0.23993211081787E+00  0.21006147624090E+01
H     17     1 -0.21738828059599E+01  0.16059458480295E+01 -0.10253922599577E+01
H     18     1  0.18279567098558E+01 -0.43613595391026E-01 -0.27015685477279E+01
H     19     1  0.84034578120826E+01  0.35708713953006E+01 -0.33870673983782E+00
H     20     1  0.93154100902881E+01  0.36604086565230E+00  0.65042723223945E-01
H     21     1  0.94989026461649E+01  0.17914136620844E+01 -0.30006351164489E+01
[GTO]
           1 0
 s           4   1.00000000000000     
   51.0493630955799      -0.163120632101274     
   8.79112274068875      -0.199110245810007     
  0.706404222589298       0.318820477536558     
  0.269228134134116       0.127065041842404     
 p           4   1.00000000000000     
   5.82636561408000       0.737164515452096     
   1.51068960187200       0.682163716148503     
  0.532564832880000       0.357830539292537     
  0.212023236906000       5.398303027584788E-002
 
           2 0
 s           4   1.00000000000000     
   69.1379619061966      -0.204787563700778     
   11.9061291327073      -0.249970231368273     
  0.956708277443407       0.400258802406396     
  0.364625204960737       0.159522066676936     
 p           4   1.00000000000000     
   8.21241932577816        1.13215567991868     
   2.12935769970981        1.04768407822548     
  0.750664482023609       0.549565082171590     
  0.298852465432831       8.290848659276662E-002
 
           3 0
 s           4   1.00000000000000     
   51.0493630955799      -0.163120632101274     
   8.79112274068875      -0.199110245810007     
  0.706404222589298       0.318820477536558     
  0.269228134134116       0.127065041842404     
 p           4   1.00000000000000     
   5.82636561408000       0.737164515452096     
   1.51068960187200       0.682163716148503     
  0.532564832880000       0.357830539292537     
  0.212023236906000       5.398303027584788E-002
 
           4 0
 s           4   1.00000000000000     
   69.1379619061966      -0.204787563700778     
   11.9061291327073      -0.249970231368273     
  0.956708277443407       0.400258802406396     
  0.364625204960737       0.159522066676936     
 p           4   1.00000000000000     
   8.21241932577816        1.13215567991868     
   2.12935769970981        1.04768407822548     
  0.750664482023609       0.549565082171590     
  0.298852465432831       8.290848659276662E-002
 
           5 0
 s           4   1.00000000000000     
   63.5940244669410      -0.192343884147216     
   10.9514172315237      -0.234781079249537     
  0.879993102573770       0.375937539017009     
  0.335387152965211       0.149828892718628     
 p           4   1.00000000000000     
   7.29650404814951       0.976586663156674     
   1.89187454507126       0.903722267303458     
  0.666944321108241       0.474049584615364     
  0.265522026741309       7.151606771501186E-002
 
           6 0
 s           4   1.00000000000000     
   51.0493630955799      -0.163120632101274     
   8.79112274068875      -0.199110245810007     
  0.706404222589298       0.318820477536558     
  0.269228134134116       0.127065041842404     
 p           4   1.00000000000000     
   5.82636561408000       0.737164515452096     
   1.51068960187200       0.682163716148503     
  0.532564832880000       0.357830539292537     
  0.212023236906000       5.398303027584788E-002
 
           7 0
 s           4   1.00000000000000     
   63.5940244669410      -0.192343884147216     
   10.9514172315237      -0.234781079249537     
  0.879993102573770       0.375937539017009     
  0.335387152965211       0.149828892718628     
 p           4   1.00000000000000     
   7.29650404814951       0.976586663156674     
   1.89187454507126       0.903722267303458     
  0.666944321108241       0.474049584615364     
  0.265522026741309       7.151606771501186E-002
 
           8 0
 s           4   1.00000000000000     
   9.34674866189868      -0.125552785052236     
   2.63274953955161      -0.254029831967196     
  0.472092932487140       0.305184566430756     
  0.232271649766237       8.559661830788402E-002
 p           4   1.00000000000000     
   8.96653868620652      -0.317209215069455     
  0.926601749794952       0.357031126383567     
  0.418792332287928       0.280771537007085     
  0.202453454537036       4.152131922185704E-002
 d           3   1.00000000000000     
   3.20597745654841        2.13231494102881     
   1.00523897559031       0.971375176087545     
  0.391565355448865       0.129419082352652     
 
           9 0
 s           4   1.00000000000000     
   63.5940244669410      -0.192343884147216     
   10.9514172315237      -0.234781079249537     
  0.879993102573770       0.375937539017009     
  0.335387152965211       0.149828892718628     
 p           4   1.00000000000000     
   7.29650404814951       0.976586663156674     
   1.89187454507126       0.903722267303458     
  0.666944321108241       0.474049584615364     
  0.265522026741309       7.151606771501186E-002
 
          10 0
 s           4   1.00000000000000     
   51.0493630955799      -0.163120632101274     
   8.79112274068875      -0.199110245810007     
  0.706404222589298       0.318820477536558     
  0.269228134134116       0.127065041842404     
 p           4   1.00000000000000     
   5.82636561408000       0.737164515452096     
   1.51068960187200       0.682163716148503     
  0.532564832880000       0.357830539292537     
  0.212023236906000       5.398303027584788E-002
 
          11 0
 s           4   1.00000000000000     
   69.1379619061966      -0.204787563700778     
   11.9061291327073      -0.249970231368273     
  0.956708277443407       0.400258802406396     
  0.364625204960737       0.159522066676936     
 p           4   1.00000000000000     
   8.21241932577816        1.13215567991868     
   2.12935769970981        1.04768407822548     
  0.750664482023609       0.549565082171590     
  0.298852465432831       8.290848659276662E-002
 
          12 0
 s           4   1.00000000000000     
   69.1379619061966      -0.204787563700778     
   11.9061291327073      -0.249970231368273     
  0.956708277443407       0.400258802406396     
  0.364625204960737       0.159522066676936     
 p           4   1.00000000000000     
   8.21241932577816        1.13215567991868     
   2.12935769970981        1.04768407822548     
  0.750664482023609       0.549565082171590     
  0.298852465432831       8.290848659276662E-002
 
          13 0
 s           4   1.00000000000000     
   51.0493630955799      -0.163120632101274     
   8.79112274068875      -0.199110245810007     
  0.706404222589298       0.318820477536558     
  0.269228134134116       0.127065041842404     
 p           4   1.00000000000000     
   5.82636561408000       0.737164515452096     
   1.51068960187200       0.682163716148503     
  0.532564832880000       0.357830539292537     
  0.212023236906000       5.398303027584788E-002
 
          14 0
 s           3   1.00000000000000     
   3.37022769753360       0.273591105889083     
  0.613891182214980       0.264605406538605     
  0.166142911484160       8.246594753408230E-002
 
          15 0
 s           3   1.00000000000000     
   3.37022769753360       0.273591105889083     
  0.613891182214980       0.264605406538605     
  0.166142911484160       8.246594753408230E-002
 
          16 0
 s           3   1.00000000000000     
   3.37022769753360       0.273591105889083     
  0.613891182214980       0.264605406538605     
  0.166142911484160       8.246594753408230E-002
 
          17 0
 s           3   1.00000000000000     
   3.37022769753360       0.273591105889083     
  0.613891182214980       0.264605406538605     
  0.166142911484160       8.246594753408230E-002
 
          18 0
 s           3   1.00000000000000     
   3.37022769753360       0.273591105889083     
  0.613891182214980       0.264605406538605     
  0.166142911484160       8.246594753408230E-002
 
          19 0
 s           3   1.00000000000000     
   3.37022769753360       0.273591105889083     
  0.613891182214980       0.264605406538605     
  0.166142911484160       8.246594753408230E-002
 
          20 0
 s           3   1.00000000000000     
   3.37022769753360       0.273591105889083     
  0.613891182214980       0.264605406538605     
  0.166142911484160       8.246594753408230E-002
 
          21 0
 s           3   1.00000000000000     
   3.37022769753360       0.273591105889083     
  0.613891182214980       0.264605406538605     
  0.166142911484160       8.246594753408230E-002
 
[MO]
Sym=     1a
Ene=   -1.05307565653030     
Spin= Alpha
Occup=     2.00000000
           1  2.237508171512291E-006
           2  8.037924467591088E-006
           3 -1.470082975911646E-006
           4  1.369108894963700E-007
           5  7.507166418769313E-006
           6 -6.541418647850309E-006
           7 -4.189904797091504E-006
           8  2.347994495373876E-006
           9  1.116587465936810E-004
          10  3.203935479477342E-004
          11 -1.046186187609648E-004
          12  1.275444617983927E-004
          13  1.677046885490688E-004
          14  1.061056197161400E-004
          15 -1.697896147372391E-006
          16  3.546321362010367E-005
          17  7.939830321432808E-004
          18  6.034826826367576E-004
          19 -4.006936193394242E-004
          20  3.398988582036007E-004
          21  4.126519308942764E-003
          22  2.724689160679108E-003
          23 -5.995885997230348E-003
          24  5.395280135094337E-003
          25  3.033234500471686E-002
          26  6.189260500357937E-002
          27 -3.411105545340506E-002
          28  1.392855314193003E-002
          29  0.978126625029815     
          30  1.529365885431616E-002
          31 -1.358285820906081E-002
          32 -1.038229578196028E-002
          33 -4.134999590870612E-003
          34  5.103026450443143E-004
          35  3.624696945826298E-003
          36  3.273060611022155E-003
          37 -1.716798948688230E-003
          38  9.243735046092868E-004
          39 -7.210312490731547E-005
          40 -1.275524492570593E-005
          41 -1.020640881207084E-003
          42  9.976659907251369E-004
          43  5.294454700090945E-004
          44 -5.154865291327102E-004
          45 -1.779577929835662E-003
          46  1.024939098288202E-003
          47 -8.260295181764319E-004
          48 -5.594658941145973E-004
          49 -1.348216919264488E-003
          50  2.591632148663435E-004
          51  7.400001141959092E-005
          52 -2.164080550029919E-005
          53 -6.697178225621255E-007
          54  3.068448675065291E-005
          55  1.633641149158882E-005
          56 -3.529698646827608E-005
          57 -8.718290779103965E-006
          58  1.379420675706775E-005
          59  3.829493645537596E-006
          60  1.490635440562396E-006
          61  3.643059629089914E-006
          62  4.105196014562785E-004
          63 -1.810161887479615E-004
          64  3.501397548408444E-005
          65 -3.205576504548060E-005
          66  9.321533782358904E-006
Sym=     2a
Ene=  -0.763755769621717     
Spin= Alpha
Occup=     2.00000000
           1 -9.316384571030881E-002
           2 -0.104272428901110     
           3 -1.144799155130774E-002
           4  1.029044603162867E-002
           5 -0.648348154770069     
           6 -9.331711423799879E-002
           7  9.023034890431231E-002
           8 -4.217088563762234E-002
           9 -0.335866084289193     
          10  0.124338261073020     
          11 -9.920164783508519E-002
          12  5.607757531641031E-002
          13 -0.114411547337372     
          14  1.373407562032779E-002
          15 -9.160553822093780E-002
          16  5.087895304901095E-002
          17 -6.570264725573152E-002
          18  0.103410390203880     
          19  2.453797341658327E-003
          20 -4.337201445631387E-003
          21  2.404983932201769E-002
          22  5.213697833189304E-003
          23  5.005547026753893E-003
          24 -5.238391572048072E-003
          25  4.644774108931007E-003
          26  6.815023341940472E-004
          27  3.245180351479532E-003
          28 -3.586110208639809E-003
          29 -8.260070976639173E-004
          30 -3.477301305206734E-004
          31  5.297276417298849E-004
          32 -4.193654739757633E-004
          33  1.312821807315690E-004
          34 -9.069792533922257E-005
          35 -4.058425539234643E-005
          36 -3.884547589804474E-005
          37 -1.290626848208131E-005
          38  5.571884890740491E-005
          39  8.251845374348105E-003
          40 -1.567094639478048E-002
          41 -3.810230901025176E-003
          42  4.956651594789094E-003
          43 -2.115880935261715E-002
          44 -9.606607324005383E-003
          45 -2.897481146792664E-003
          46  8.774438509445500E-003
          47 -6.822651029435258E-003
          48 -1.251408113473182E-003
          49 -1.404772093541659E-004
          50  6.571784283061332E-003
          51 -4.516251719309194E-002
          52  6.176833071738655E-003
          53  1.356505798356099E-003
          54 -7.242973320929052E-003
          55 -6.453806927469186E-003
          56  6.949630905697064E-003
          57  2.114063899905867E-003
          58  6.932356614500038E-004
          59 -1.508598512465495E-003
          60  2.164498725141024E-003
          61 -1.729071373778192E-003
          62 -1.090207292125691E-002
          63  9.863074035870167E-004
          64 -9.763256083588860E-005
          65 -1.109334371594187E-004
          66  1.694870134737367E-004
Sym=     3a
Ene=  -0.762121508272555     
Spin= Alpha
Occup=     2.00000000
           1 -6.547148079313114E-003
           2 -7.322618394622156E-003
           3 -8.173353164468337E-004
           4  7.362487901161791E-004
           5 -4.501767746240398E-002
           6 -6.355384256410202E-003
           7  6.265132583549235E-003
           8 -2.880874545478892E-003
           9 -2.508479413261890E-002
          10  6.626079293274250E-003
          11 -6.313620669715311E-003
          12  3.831710114331558E-003
          13 -8.977656058031381E-003
          14  2.495124508095362E-004
          15 -6.840971130302670E-003
          16  3.867362940056378E-003
          17 -1.745131861933293E-002
          18 -2.183765582172256E-003
          19  3.874793465759800E-003
          20 -9.892985878700231E-004
          21 -1.996911089454968E-002
          22  7.761909590913567E-003
          23 -8.809131178121572E-005
          24  5.320051326604850E-003
          25 -4.385383999104779E-003
          26  7.595615793380068E-004
          27 -2.817733311624408E-003
          28  3.791745036641489E-003
          29 -2.491629997659930E-005
          30  4.096417014259513E-004
          31  2.550613396920321E-004
          32 -2.414310089664765E-004
          33 -2.991104639293087E-004
          34  3.198682747071196E-004
          35 -2.075781077781101E-005
          36  2.591019779135673E-004
          37 -7.255443398880749E-005
          38 -2.872220805674511E-004
          39  6.770120657791583E-002
          40  9.641567699556250E-002
          41  2.953504597164452E-002
          42  1.558192972960353E-003
          43  0.337312752723190     
          44  0.107294822561452     
          45  3.519585263003566E-002
          46 -0.113000553409120     
          47  0.120767428142239     
          48  5.545419832829770E-003
          49 -1.720978973580705E-003
          50 -0.105543267255416     
          51  0.649195019464776     
          52 -8.763654135656614E-002
          53 -1.838950506547603E-002
          54  0.105000062295110     
          55  9.393128022961748E-002
          56 -0.101229699166941     
          57 -3.070541452493512E-002
          58 -1.014595318275610E-002
          59 -1.242517049232798E-004
          60  1.285984856669667E-004
          61 -1.360481388929816E-004
          62 -2.612384218925442E-003
          63  1.001639836200795E-002
          64  1.689751850147641E-003
          65  1.827095020508080E-003
          66 -2.151001903247765E-003
Sym=     4a
Ene=  -0.734555872408104     
Spin= Alpha
Occup=     2.00000000
           1 -8.361564166415229E-003
           2 -6.447169626995118E-003
           3 -3.046447102593313E-003
           4  1.843159072014042E-003
           5 -3.242627377486241E-002
           6  6.603505722036352E-003
           7 -4.988902679272716E-003
           8  2.248913999976143E-003
           9  1.711028146934210E-002
          10  3.655984952601829E-003
          11 -1.349500295293108E-002
          12  6.089415008678292E-003
          13  2.869753281102185E-002
          14  3.428482694913223E-003
          15  8.220372092012091E-003
          16 -5.021798650316784E-003
          17 -7.779141222755059E-003
          18 -2.067138232529091E-002
          19 -2.565773151926454E-003
          20 -1.291430238103849E-003
          21 -6.835943861896419E-002
          22 -3.848528147322207E-002
          23 -1.638459414257466E-002
          24  2.063550959656129E-003
          25 -1.659220414839580E-002
          26 -6.403749057658261E-003
          27 -1.523322243832272E-002
          28  1.244158217115034E-002
          29  1.031756298660314E-002
          30  3.615614065695754E-004
          31 -8.193721102883626E-003
          32  4.687539528917041E-003
          33 -5.258427042799127E-004
          34  4.574197256304866E-004
          35  6.842297864942604E-005
          36 -1.495075981186797E-004
          37  1.099934631043739E-004
          38 -2.009795994427352E-004
          39 -0.124548869387476     
          40 -4.262255893998085E-002
          41 -1.349922249721502E-002
          42 -9.627944898261942E-002
          43 -0.315877513461324     
          44  4.060702214619184E-002
          45 -4.539702632147612E-003
          46 -0.254051826008658     
          47 -0.520739097802138     
          48  6.609359816522747E-002
          49  2.599579631826393E-002
          50  0.167481174266265     
          51  0.339565159349266     
          52  5.323726733436870E-002
          53  1.301727964788933E-002
          54 -9.188600657114836E-002
          55  7.744531885591262E-002
          56 -5.754957786672861E-002
          57 -1.894458235852783E-002
          58 -3.834525527370600E-002
          59 -6.597398114732236E-004
          60 -1.156848140875312E-003
          61 -6.135124746831038E-004
          62 -2.961725075934445E-003
          63  1.873699267184968E-003
          64  5.519720614869099E-003
          65  4.686188630211923E-003
          66  1.166281268834681E-002
Sym=     5a
Ene=  -0.733254803076916     
Spin= Alpha
Occup=     2.00000000
           1 -7.958386949683255E-002
           2 -5.902112510954616E-002
           3 -3.798507434240768E-002
           4  2.252685977941746E-002
           5 -0.340193964128252     
           6  6.618325550951945E-002
           7 -8.888239387996727E-002
           8  4.523225427607039E-002
           9  0.321407787552430     
          10  3.528538551115932E-002
          11 -0.222585141592259     
          12  0.111499801271319     
          13  0.517001116469020     
          14  4.916586610107693E-002
          15  0.153438544152013     
          16 -8.961630795668458E-002
          17  0.118979927656896     
          18 -3.700466012169685E-002
          19 -8.392223053042423E-002
          20  4.865156564506720E-002
          21  7.329350420323451E-002
          22 -3.849399166286482E-002
          23 -4.714738094144620E-003
          24  2.709403331153836E-003
          25  2.914334882337421E-002
          26 -1.285179284919106E-002
          27  1.675235434677129E-002
          28 -1.958072663312029E-002
          29  1.795703964623187E-003
          30 -1.852632488138633E-004
          31  1.104878571990892E-003
          32 -1.495452528722567E-003
          33  5.455291086858405E-004
          34 -1.478899873995001E-004
          35 -3.976391212863404E-004
          36 -6.293477735583725E-004
          37  1.284029442455823E-004
          38 -1.967946721481834E-004
          39  1.238791185716906E-002
          40 -9.624911215593338E-003
          41 -4.115498051712962E-003
          42  1.065099040484201E-002
          43  1.821879811930235E-002
          44  5.214506887487135E-004
          45  8.680559454573149E-004
          46  1.476825411363543E-002
          47  3.125735150381409E-002
          48 -2.987170262771452E-003
          49 -1.344964438188090E-003
          50 -1.006287665479125E-002
          51 -7.584426338976473E-003
          52  1.972806745675487E-004
          53  2.312843527627015E-004
          54  5.504396153375779E-003
          55 -5.612798189433722E-004
          56  3.767789262199205E-004
          57  1.618423016279091E-004
          58  1.347138940340227E-003
          59 -5.463505714626721E-003
          60 -1.303228786619003E-002
          61 -4.514644570086285E-003
          62 -3.070176143482047E-003
          63  2.165084979058874E-004
          64  7.227140986423068E-005
          65  1.181653803950418E-004
          66 -2.321307907162479E-004
Sym=     6a
Ene=  -0.718729427344037     
Spin= Alpha
Occup=     2.00000000
           1 -2.298927885068477E-002
           2 -8.626864404705751E-003
           3  3.112383284507213E-003
           4 -1.370473671292778E-003
           5  5.027376983902668E-002
           6  5.610359884373740E-002
           7  2.476816518852629E-002
           8 -1.543494175850481E-002
           9  2.442911106116128E-002
          10  0.104641963192550     
          11  8.294207430325921E-002
          12 -4.822763687184840E-002
          13 -0.149466126122138     
          14  2.851437269478653E-002
          15 -2.227077014819983E-002
          16  1.215102251391208E-002
          17  0.353297694461664     
          18  0.129388620762790     
          19 -5.443973189072774E-002
          20  2.828567861033264E-002
          21  0.437302850450488     
          22 -2.804024353802933E-002
          23  5.126212449043423E-002
          24 -5.965372968039830E-002
          25  0.128258681139503     
          26 -6.733141847762650E-003
          27  8.107268389939642E-002
          28 -9.063148867403618E-002
          29 -7.595663247875154E-003
          30 -7.960120516810306E-003
          31  1.333381163165007E-002
          32 -1.235436076089862E-002
          33  2.574620674180221E-003
          34 -1.133116184606922E-003
          35 -1.441504489573298E-003
          36 -2.231365004247783E-003
          37  6.080786179305989E-004
          38 -5.738612845008631E-004
          39  0.288522287424020     
          40 -0.122633772495287     
          41 -3.511893967654602E-002
          42  7.367014533436317E-002
          43  9.436767110056048E-003
          44 -8.010479762651244E-002
          45 -2.711135300617924E-002
          46 -7.219509197636541E-002
          47 -0.129951405917457     
          48 -1.782308378127357E-002
          49 -4.455681905648133E-003
          50  2.356573070205177E-002
          51  6.450774763945884E-002
          52 -2.872074977125739E-002
          53 -9.016627663490066E-003
          54 -2.486198353917268E-002
          55 -5.704995164066392E-003
          56 -1.243859357184599E-003
          57 -5.288972756512456E-004
          58 -6.497830398844062E-003
          59 -5.447211640984869E-003
          60 -3.720071433200734E-003
          61 -5.860758547631952E-003
          62  7.294024143222930E-002
          63  5.563711667673870E-002
          64 -2.622553336551062E-003
          65 -3.038919297475467E-003
          66 -6.873316505153290E-004
Sym=     7a
Ene=  -0.709781763998067     
Spin= Alpha
Occup=     2.00000000
           1  0.150570103093056     
           2  7.723228724381939E-002
           3  2.527770737874687E-002
           4 -1.650583126846545E-002
           5  9.155365965387512E-002
           6 -0.236517017376412     
           7 -4.009418491309867E-003
           8  1.041172642195762E-002
           9 -0.109916153599597     
          10 -0.155252770207673     
          11 -0.148830805349084     
          12  8.775103141373883E-002
          13  0.218240643413535     
          14 -4.790489314179699E-002
          15  1.344225934136969E-002
          16 -6.664882695162124E-003
          17 -0.264792180747605     
          18  0.125916506292187     
          19  8.307379054908177E-003
          20 -1.202771303756027E-002
          21  5.479708156958116E-002
          22  0.118133014229242     
          23  8.323685738347479E-003
          24 -2.361928146239635E-002
          25  1.054350598780479E-002
          26  2.252256275798613E-002
          27  6.865332853783922E-003
          28 -9.852009642681837E-003
          29 -1.269259489463730E-002
          30 -5.290315937284931E-003
          31  8.016505258375495E-003
          32 -6.224226676781214E-003
          33  2.719353552179070E-004
          34 -4.301251110910040E-004
          35  1.581897558730970E-004
          36  4.907520579057816E-004
          37 -2.952345944524645E-004
          38  4.433716567068679E-004
          39  0.302716136480491     
          40  6.511132729925584E-002
          41  9.576392820641329E-003
          42  3.044039985386605E-002
          43  9.465059792248195E-002
          44 -0.152859476373441     
          45 -5.314651578111811E-002
          46 -0.149906656596171     
          47 -0.215367459924445     
          48 -4.103930670716067E-002
          49 -1.223919134434843E-002
          50  1.766372063046243E-002
          51 -5.879147342672677E-002
          52 -0.186410464963676     
          53 -5.792923378079293E-002
          54 -6.775089694238858E-003
          55 -0.121510207048718     
          56  6.004683456897435E-002
          57  1.872000410229201E-002
          58  1.863378549605167E-002
          59  2.578659981725014E-002
          60  3.026973774254967E-002
          61  2.563774493645932E-002
          62 -6.271408523806074E-002
          63  6.525750639369648E-002
          64 -2.137100828557702E-002
          65 -2.124050995210955E-002
          66 -2.383088832151277E-002
Sym=     8a
Ene=  -0.703560805603153     
Spin= Alpha
Occup=     2.00000000
           1  0.173985140033232     
           2  8.535949632404972E-002
           3  3.697896692378223E-002
           4 -2.296272028079329E-002
           5  0.126639918716378     
           6 -0.260811554005349     
           7  2.528208604485541E-002
           8 -3.526187657594978E-003
           9 -0.122104930845772     
          10 -8.280250263267626E-002
          11 -0.119339444531240     
          12  7.250884456439824E-002
          13  0.136738199104199     
          14 -2.590841803445571E-002
          15 -5.230194285559829E-003
          16  4.476348400703666E-003
          17 -6.615654726841773E-002
          18  0.198192307236325     
          19 -4.279676186861875E-002
          20  2.367666909569070E-002
          21  0.212826997008166     
          22 -1.783687295305340E-002
          23 -1.112244433683793E-002
          24  3.719202882861553E-003
          25  0.100713902425173     
          26 -1.913610533482731E-003
          27  5.009815588995942E-002
          28 -5.806967861643631E-002
          29 -9.592279820451393E-003
          30 -9.099711658457138E-003
          31  1.054440873717416E-002
          32 -8.180200397356775E-003
          33  1.597829668730276E-003
          34 -7.203827704370075E-004
          35 -8.774468982932687E-004
          36 -1.210770570883464E-003
          37  3.553067651000846E-004
          38 -1.641214938860843E-004
          39 -0.125572833752664     
          40 -0.191567757207053     
          41 -6.667809314795767E-002
          42  4.695905981657655E-002
          43 -0.140113511099300     
          44  0.117643330056569     
          45  3.606999560631889E-002
          46  0.158576054438512     
          47  0.178300105812662     
          48  3.292790448437458E-002
          49  8.317138310125300E-003
          50  4.424480115145923E-003
          51  0.132852802626731     
          52  0.274633501316420     
          53  8.158859351189914E-002
          54 -3.159473415575659E-002
          55  0.191288949931675     
          56 -9.187017151363443E-002
          57 -2.946259461594793E-002
          58 -4.078454488947348E-002
          59  2.975282972573614E-002
          60  3.905222506457783E-002
          61  2.901263417879730E-002
          62 -3.644567891231516E-002
          63 -4.469554612477788E-002
          64  3.317216928713926E-002
          65  3.241069054715084E-002