16
 energy: -34.761968309296 gnorm: 0.000729924695 xtb: 6.7.1 (edcfbbe)
O            1.96638466117092        2.22999816126465       -0.81709703858162
C            1.57224618108548        1.17597576767698       -0.40664537422431
C            0.18962659513333        0.65908167932824       -0.25922987399308
C           -1.01852920116167        1.25429886093876       -0.55581940781849
C           -2.17668027592110        0.52135818700674       -0.31044542820387
C           -2.11707603434895       -0.76069390551223        0.21321733044439
C           -0.89693742160226       -1.36106802686160        0.51244474183917
C            0.24977102812832       -0.63458974477198        0.26917888775780
C            1.67318104410001       -0.99507423915176        0.48013533492221
O            2.16303434851810       -1.99982256897419        0.91060416349039
N            2.37493520615037        0.13238023108750        0.05377911595988
Cl           4.09037806865892        0.22799960318468        0.09262349741081
H           -1.05709628479344        2.25237767908388       -0.96313670841838
H           -3.13788322935481        0.96017045552226       -0.53229401922538
H           -3.03261363856847       -1.30411637094809        0.39256908455017
H           -0.84274104719464       -2.35827576887394        0.92011569409031
