10
 energy: -39.423203159210 gnorm: 0.000697503008 xtb: 6.7.1 (edcfbbe)
O            1.93741794843057        0.82681951013025        1.11521139317265
S            1.87750924583529       -0.07411074344301       -0.01925356905771
O            2.68637102154153        0.38263612842621       -1.14654623457062
O            2.15106756452865       -1.46025092346301        0.32567381940168
O            0.34202647220337       -0.02058275836876       -0.66656648272480
O           -0.36984623593491       -0.46547807711284        0.45635568149372
S           -1.87510291752928        0.11615367755109        0.03743623210774
O           -1.80085755088538        1.55912815901170       -0.08334203951818
O           -2.26611296509814       -0.54978764583931       -1.19497075219452
O           -2.68247258309168       -0.31452732689228        1.17600195189001
