16
 energy: -33.487603145521 gnorm: 0.000919355674 xtb: 6.7.1 (edcfbbe)
O            0.66943749565514        3.23551238020783       -0.84026110521447
C            1.00513791826329        2.10044402770372       -0.61067475788268
O            2.24558196098484        1.68714022786200       -0.64437365109714
I            2.58014055108040       -0.35350105117005       -0.19471390886919
O            2.43774724532814       -2.33369933599967        0.28179257578910
C            0.49661800828268       -0.24220820335259       -0.00006461342211
C           -0.31595671703880       -1.29991139789852        0.33733289157254
C           -1.67846564840531       -1.05387037515194        0.42316667521789
C           -2.19083498560061        0.21286690630526        0.17573452311699
C           -1.34983002926928        1.25907481768182       -0.16151297787869
C            0.01661068452109        1.02797094850217       -0.25092106567228
H            3.29886739729655       -2.73865279396685        0.38658032161315
H            0.10244272905006       -2.27448517539107        0.52388213375873
H           -2.34382053758259       -1.86204604016787        0.68601599664008
H           -3.25442041023541        0.38179436913240        0.24720708131830
H           -1.71925566233124        2.25357069570307       -0.35919011899007
