17
 energy: -37.456918705249 gnorm: 0.000876237437 xtb: 6.7.1 (edcfbbe)
O           -2.53194702461659        0.14361873274948       -0.13452803003203
C           -1.61082983326029        0.91076975314165       -0.23141960036563
O           -1.77341891344686        2.21263761798294       -0.46795720954514
C           -0.20158923424870        0.48728052584385       -0.10199700021427
C            0.87643792135285        1.35595250330401       -0.24554279653487
C            2.16569634471762        0.87067315746456       -0.11308406858162
C            2.38774360460355       -0.47063617280241        0.16263146559141
C            1.31537380092810       -1.33922540247892        0.30828732096471
C            0.03437513104897       -0.84841831039219        0.17260449253293
I           -1.53928663904262       -2.29534140097315        0.42104687065929
O           -2.41700756040653       -2.39005089956075       -1.10878603132315
O           -2.54073611624243       -1.76702175736530        1.77767845465408
H           -2.71917764874488        2.41977925196129       -0.54298540154661
H            0.68993723506841        2.39659406096520       -0.45975525383702
H            3.00351905916569        1.54183173771878       -0.22544228720798
H            3.39588321175265       -0.84227677690180        0.26497752946117
H            1.46502666137097       -2.38616662065750        0.52427154532473
