12
 energy: -26.212844541524 gnorm: 0.000323922062 xtb: 6.7.1 (edcfbbe)
O            1.07054962946278       -2.04698983955400       -0.92909543204240
C            0.57852144247081       -1.05371948247452       -0.48186695599767
C           -0.88038785350685       -0.77645691404160       -0.18360078692886
C           -0.92631751764109        0.64541497727507        0.37020635365035
C            0.50790116281456        1.13251872847315        0.36965569746597
O            0.93360961210662        2.19235326806025        0.72209593649195
N            1.27206657240383        0.09226417012442       -0.13138550671092
Cl           2.98035197476296        0.21616753075243       -0.30782562925398
H           -1.24146477606163       -1.52170256729252        0.52557762286103
H           -1.45512055800094       -0.89446430333686       -1.10254485141761
H           -1.31302787745675        0.69368798975134        1.38845310062938
H           -1.52668181135431        1.32092644226286       -0.23966954874728
