[Molden Format]
[Title]
[Atoms] AU
C      1     6 -0.21893903062189E+01 -0.19649658030483E+01 -0.15444452506138E+01
C      2     6 -0.57626796438838E+00 -0.32898982908952E+00  0.20019495149284E+00
C      3     6 -0.16390693852295E+01 -0.23628690602880E+00  0.28805324457520E+01
C      4     6  0.21535500789672E+01 -0.13259237754583E+01  0.25016087463242E+00
O      5     8  0.28502287285145E+01 -0.33563855109864E+01  0.95674673241448E+00
N      6     7  0.36014690820308E+01  0.59500032460239E+00 -0.68035185470267E+00
Cl     7    17  0.68206238680969E+01  0.49417591410163E+00 -0.10413243111743E+01
C      8     6  0.22141009040926E+01  0.27802365164784E+01 -0.13615017525658E+01
O      9     8  0.30697809805287E+01  0.46849921538793E+01 -0.22120421822704E+01
N     10     7 -0.21421414831964E+00  0.21807862695388E+01 -0.82531122270134E+00
Cl    11    17 -0.26677857083806E+01  0.42290377093072E+01 -0.13203495848280E+01
H     12     1 -0.41163630582130E+01 -0.12543455141271E+01 -0.15835666100417E+01
H     13     1 -0.14300894537227E+01 -0.19425613320913E+01 -0.34540170521515E+01
H     14     1 -0.21898963087742E+01 -0.38981660565623E+01 -0.85399066048867E+00
H     15     1 -0.16257687997805E+01 -0.21261161178111E+01  0.36820058700945E+01
H     16     1 -0.49511345015252E+00  0.99440254238158E+00  0.40638635039693E+01
H     17     1 -0.35657950590508E+01  0.47510941491365E+00  0.28433961031826E+01
[GTO]
           1 0
 s           4   1.00000000000000     
   51.0493630955799      -0.163120632101274     
   8.79112274068875      -0.199110245810007     
  0.706404222589298       0.318820477536558     
  0.269228134134116       0.127065041842404     
 p           4   1.00000000000000     
   5.82636561408000       0.737164515452096     
   1.51068960187200       0.682163716148503     
  0.532564832880000       0.357830539292537     
  0.212023236906000       5.398303027584788E-002
 
           2 0
 s           4   1.00000000000000     
   51.0493630955799      -0.163120632101274     
   8.79112274068875      -0.199110245810007     
  0.706404222589298       0.318820477536558     
  0.269228134134116       0.127065041842404     
 p           4   1.00000000000000     
   5.82636561408000       0.737164515452096     
   1.51068960187200       0.682163716148503     
  0.532564832880000       0.357830539292537     
  0.212023236906000       5.398303027584788E-002
 
           3 0
 s           4   1.00000000000000     
   51.0493630955799      -0.163120632101274     
   8.79112274068875      -0.199110245810007     
  0.706404222589298       0.318820477536558     
  0.269228134134116       0.127065041842404     
 p           4   1.00000000000000     
   5.82636561408000       0.737164515452096     
   1.51068960187200       0.682163716148503     
  0.532564832880000       0.357830539292537     
  0.212023236906000       5.398303027584788E-002
 
           4 0
 s           4   1.00000000000000     
   51.0493630955799      -0.163120632101274     
   8.79112274068875      -0.199110245810007     
  0.706404222589298       0.318820477536558     
  0.269228134134116       0.127065041842404     
 p           4   1.00000000000000     
   5.82636561408000       0.737164515452096     
   1.51068960187200       0.682163716148503     
  0.532564832880000       0.357830539292537     
  0.212023236906000       5.398303027584788E-002
 
           5 0
 s           4   1.00000000000000     
   69.1379619061966      -0.204787563700778     
   11.9061291327073      -0.249970231368273     
  0.956708277443407       0.400258802406396     
  0.364625204960737       0.159522066676936     
 p           4   1.00000000000000     
   8.21241932577816        1.13215567991868     
   2.12935769970981        1.04768407822548     
  0.750664482023609       0.549565082171590     
  0.298852465432831       8.290848659276662E-002
 
           6 0
 s           4   1.00000000000000     
   63.5940244669410      -0.192343884147216     
   10.9514172315237      -0.234781079249537     
  0.879993102573770       0.375937539017009     
  0.335387152965211       0.149828892718628     
 p           4   1.00000000000000     
   7.29650404814951       0.976586663156674     
   1.89187454507126       0.903722267303458     
  0.666944321108241       0.474049584615364     
  0.265522026741309       7.151606771501186E-002
 
           7 0
 s           4   1.00000000000000     
   9.34674866189868      -0.125552785052236     
   2.63274953955161      -0.254029831967196     
  0.472092932487140       0.305184566430756     
  0.232271649766237       8.559661830788402E-002
 p           4   1.00000000000000     
   8.96653868620652      -0.317209215069455     
  0.926601749794952       0.357031126383567     
  0.418792332287928       0.280771537007085     
  0.202453454537036       4.152131922185704E-002
 d           3   1.00000000000000     
   3.20597745654841        2.13231494102881     
   1.00523897559031       0.971375176087545     
  0.391565355448865       0.129419082352652     
 
           8 0
 s           4   1.00000000000000     
   51.0493630955799      -0.163120632101274     
   8.79112274068875      -0.199110245810007     
  0.706404222589298       0.318820477536558     
  0.269228134134116       0.127065041842404     
 p           4   1.00000000000000     
   5.82636561408000       0.737164515452096     
   1.51068960187200       0.682163716148503     
  0.532564832880000       0.357830539292537     
  0.212023236906000       5.398303027584788E-002
 
           9 0
 s           4   1.00000000000000     
   69.1379619061966      -0.204787563700778     
   11.9061291327073      -0.249970231368273     
  0.956708277443407       0.400258802406396     
  0.364625204960737       0.159522066676936     
 p           4   1.00000000000000     
   8.21241932577816        1.13215567991868     
   2.12935769970981        1.04768407822548     
  0.750664482023609       0.549565082171590     
  0.298852465432831       8.290848659276662E-002
 
          10 0
 s           4   1.00000000000000     
   63.5940244669410      -0.192343884147216     
   10.9514172315237      -0.234781079249537     
  0.879993102573770       0.375937539017009     
  0.335387152965211       0.149828892718628     
 p           4   1.00000000000000     
   7.29650404814951       0.976586663156674     
   1.89187454507126       0.903722267303458     
  0.666944321108241       0.474049584615364     
  0.265522026741309       7.151606771501186E-002
 
          11 0
 s           4   1.00000000000000     
   9.34674866189868      -0.125552785052236     
   2.63274953955161      -0.254029831967196     
  0.472092932487140       0.305184566430756     
  0.232271649766237       8.559661830788402E-002
 p           4   1.00000000000000     
   8.96653868620652      -0.317209215069455     
  0.926601749794952       0.357031126383567     
  0.418792332287928       0.280771537007085     
  0.202453454537036       4.152131922185704E-002
 d           3   1.00000000000000     
   3.20597745654841        2.13231494102881     
   1.00523897559031       0.971375176087545     
  0.391565355448865       0.129419082352652     
 
          12 0
 s           3   1.00000000000000     
   3.37022769753360       0.273591105889083     
  0.613891182214980       0.264605406538605     
  0.166142911484160       8.246594753408230E-002
 
          13 0
 s           3   1.00000000000000     
   3.37022769753360       0.273591105889083     
  0.613891182214980       0.264605406538605     
  0.166142911484160       8.246594753408230E-002
 
          14 0
 s           3   1.00000000000000     
   3.37022769753360       0.273591105889083     
  0.613891182214980       0.264605406538605     
  0.166142911484160       8.246594753408230E-002
 
          15 0
 s           3   1.00000000000000     
   3.37022769753360       0.273591105889083     
  0.613891182214980       0.264605406538605     
  0.166142911484160       8.246594753408230E-002
 
          16 0
 s           3   1.00000000000000     
   3.37022769753360       0.273591105889083     
  0.613891182214980       0.264605406538605     
  0.166142911484160       8.246594753408230E-002
 
          17 0
 s           3   1.00000000000000     
   3.37022769753360       0.273591105889083     
  0.613891182214980       0.264605406538605     
  0.166142911484160       8.246594753408230E-002
 
[MO]
Sym=     1a
Ene=   -1.09109325120813     
Spin= Alpha
Occup=     2.00000000
           1 -6.585537575214043E-004
           2  2.204519207587049E-004
           3 -5.305818303806093E-004
           4 -3.153452731202431E-005
           5 -1.940928662073975E-003
           6  2.749488373016738E-004
           7 -4.054402620130573E-003
           8  1.549714537867185E-003
           9 -6.585519235704277E-004
          10  2.654657327691248E-004
          11 -3.891754455267392E-004
          12  3.304199123620701E-004
          13 -3.394314434615122E-004
          14  5.153330448005517E-004
          15 -5.309475113222180E-004
          16  1.433312843333684E-004
          17 -1.068738659235976E-004
          18  1.944882221311997E-005
          19 -2.911017943746524E-005
          20  8.953602526708570E-006
          21 -4.504640381625169E-004
          22  5.824636413322876E-004
          23 -4.270298977493144E-004
          24  9.438676371368543E-005
          25  4.340053737550834E-003
          26  8.334531510435429E-005
          27 -5.687329364646479E-005
          28  1.178218465911941E-005
          29 -6.664038026712909E-005
          30  1.459454504716323E-005
          31  5.204583521996586E-005
          32  4.924166952389872E-005
          33 -1.602237195293705E-006
          34  1.261679387239862E-005
          35 -2.826347373346538E-003
          36  6.355938197734933E-003
          37  5.367893878140625E-005
          38 -8.114468628744137E-004
          39  3.920194848444032E-004
          40  4.573619992447633E-004
          41  1.926800227449937E-004
          42 -1.321542615894086E-004
          43 -3.044864236948758E-002
          44  6.054470232887042E-002
          45 -4.902385457396739E-002
          46  1.162218281419099E-002
          47 -0.976939849175692     
          48  1.752670104102855E-002
          49  1.290300254886591E-002
          50 -7.220465108377646E-003
          51  2.346406102532550E-003
          52 -1.397531733664324E-004
          53 -2.206652929166118E-003
          54 -3.676626731047085E-003
          55  7.692812495607583E-004
          56 -5.166019442135142E-004
          57  2.075760917855447E-003
          58  6.294501283740887E-004
          59 -3.010669873028760E-004
          60 -3.010661164713880E-004
          61  6.294449470085048E-004
          62  2.075756825783919E-003
Sym=     2a
Ene=   -1.08523798153147     
Spin= Alpha
Occup=     2.00000000
           1 -2.673672356688534E-005
           2 -9.824446644840553E-005
           3 -5.808994022638593E-005
           4 -7.826342399715209E-005
           5 -3.440442640220248E-004
           6 -8.328940462926498E-004
           7  1.098876082776732E-005
           8  9.928996669379384E-005
           9 -2.673893776033594E-005
          10 -7.417046961524037E-005
          11  1.728368493713882E-005
          12  1.154315432409168E-004
          13 -2.372008515358558E-003
          14 -4.082816997142371E-003
          15 -3.366973658046684E-003
          16  1.823130354717769E-003
          17  3.734311823263147E-004
          18 -3.033445011452874E-004
          19 -4.403259363976379E-004
          20  2.097463308424874E-004
          21 -3.242148514253194E-002
          22 -8.085520273088513E-002
          23  3.190439716359267E-003
          24  8.809437560754241E-003
          25 -0.976137015198666     
          26 -6.568243814778387E-004
          27  2.488878952032654E-003
          28 -8.906133455985440E-004
          29  3.793041490872822E-003
          30 -1.251045624694096E-003
          31 -2.541995866178726E-003
          32 -3.867603656207015E-004
          33 -8.039770108908039E-004
          34 -6.765677552920747E-004
          35 -2.192117304186099E-003
          36 -4.160883300498140E-003
          37  3.635361917470066E-003
          38 -9.027254903218010E-004
          39  5.639259411070393E-004
          40 -3.953303136540496E-004
          41  5.679988583939860E-004
          42 -1.727305838187544E-004
          43 -6.442381118794954E-004
          44 -5.566840281908346E-005
          45 -3.901732311284922E-004
          46  1.593509157983816E-004
          47 -4.502933612813310E-003
          48 -2.873897866849452E-006
          49  7.665531138909130E-005
          50 -2.949214617334256E-005
          51 -5.149640467897200E-005
          52  2.263200566847978E-005
          53  2.886439901049221E-005
          54  1.139628218694265E-005
          55  7.300837589275242E-006
          56  2.059383194501908E-006
          57 -3.129873527912028E-005
          58 -7.432526266153371E-005
          59 -8.183586382591067E-005
          60 -8.189492396334183E-005
          61 -7.426700155629905E-005
          62 -3.127777775920792E-005
Sym=     3a
Ene=  -0.754487052625541     
Spin= Alpha
Occup=     2.00000000
           1 -1.747413300971656E-002
           2 -1.770165620095113E-002
           3 -1.063236730681216E-002
           4 -8.890939812704869E-003
           5 -0.147154419447805     
           6 -8.609355730324518E-002
           7 -2.667823492180178E-002
           8  2.112949826941822E-002
           9 -1.747408557435024E-002
          10 -1.445510027650262E-002
          11 -4.342885879750964E-004
          12  1.721350516020364E-002
          13 -0.301547193817488     
          14 -1.236789733520045E-002
          15 -2.487169885013109E-002
          16  1.125467815965990E-002
          17 -0.195603815659644     
          18  3.312772323839842E-002
          19 -9.901271263819322E-002
          20  3.456078991949302E-002
          21 -0.279810221707413     
          22  0.163982082611455     
          23 -2.479642411890580E-002
          24 -1.070708870674946E-002
          25  4.105048230610787E-003
          26  2.108193570419968E-002
          27 -2.775217577587002E-003
          28 -1.537730097637069E-003
          29 -5.892282259846964E-003
          30  2.868940152371911E-003
          31  3.023342107475053E-003
          32  2.759263002815171E-004
          33  1.196422371281205E-003
          34  1.102975676110943E-004
          35 -0.373162391466867     
          36  1.251501611415411E-002
          37  3.453230019805022E-002
          38 -1.504701177468894E-002
          39 -0.210168269998875     
          40  4.956741813315507E-002
          41  0.108302422349890     
          42 -4.847455550630837E-002
          43 -0.215888336633804     
          44 -0.149385467007200     
          45  4.732423091127645E-002
          46  9.105938173474016E-005
          47 -3.907313689324243E-003
          48 -1.324339662773040E-002
          49  2.555715594760821E-003
          50  6.486496307961116E-004
          51 -1.175534637774887E-003
          52 -1.007874019274489E-003
          53  2.183408657049376E-003
          54  4.032673294002296E-003
          55 -1.058600239709978E-003
          56  1.046320223689503E-003
          57 -5.132878597240335E-004
          58 -3.467225758215712E-003
          59 -1.704865677888390E-003
          60 -1.704854879902791E-003
          61 -3.467207026499027E-003
          62 -5.132851997261817E-004
Sym=     4a
Ene=  -0.751692206159637     
Spin= Alpha
Occup=     2.00000000
           1  1.379593948915571E-002
           2  1.126220035417672E-002
           3  3.842504787324581E-003
           4  7.912539661298044E-003
           5  6.577731265227731E-002
           6  3.443684848338308E-002
           7 -3.015258877094419E-002
           8  7.496735063879163E-003
           9  1.379595500758527E-002
          10  8.959384157310723E-003
          11 -3.391143749456860E-003
          12 -1.060376002192821E-002
          13  0.328150077594279     
          14  5.636507126849993E-002
          15 -0.137339675832334     
          16  4.664377562063986E-002
          17  0.422195452185107     
          18 -5.225849094325541E-002
          19  0.151000908500413     
          20 -5.249149009787154E-002
          21  1.190740052812521E-002
          22 -3.249688342111365E-003
          23 -0.151828319132421     
          24  5.971813502405798E-002
          25 -1.134560874908676E-003
          26 -1.608795517942758E-003
          27 -1.806168649601420E-002
          28  7.256148770272829E-003
          29  3.335271150089361E-004
          30 -7.734102266290850E-005
          31 -2.561860923460276E-004
          32 -8.287248535805760E-004
          33  2.448174757699260E-004
          34  4.045920693083212E-005
          35 -0.286242897957603     
          36 -3.863726556427553E-002
          37 -9.356110472474619E-002
          38  4.135628808512896E-002
          39 -0.311986112953090     
          40  5.197509476430674E-002
          41  0.115409306651441     
          42 -5.155037853615067E-002
          43 -5.885170533487152E-002
          44 -6.880010967754359E-002
          45 -4.821284102498306E-002
          46  2.739164104034911E-002
          47  9.000108400993339E-003
          48 -1.412006831184322E-002
          49 -5.804267389354942E-004
          50  1.982838004257327E-003
          51  1.699470317766227E-004
          52 -4.573953505121934E-004
          53  2.874483187355707E-004
          54  1.032811370651568E-003
          55 -3.816758385759912E-004
          56  2.230513772814922E-004
          57  1.185106314386906E-003
          58  1.995295120624398E-003
          59  1.957425851710121E-003
          60  1.957428868260194E-003
          61  1.995295621057813E-003
          62  1.185107409354105E-003
Sym=     5a
Ene=  -0.737039522193754     
Spin= Alpha
Occup=     2.00000000
           1 -2.748245171842449E-002
           2 -1.526529157440455E-002
           3 -2.122066097074736E-002
           4 -1.049011615319838E-002
           5 -0.170539888047378     
           6 -3.588165069007973E-002
           7 -7.401114628362755E-002
           8  3.337602973542814E-002
           9 -2.748241212099091E-002
          10 -1.086190810216669E-002
          11 -7.388721325996576E-003
          12  2.491611073985843E-002
          13  3.454608336951506E-002
          14  6.137004021710327E-002
          15 -0.216078734597131     
          16  7.678192514885177E-002
          17  0.359986001934874     
          18 -2.912507547371326E-002
          19  6.260072079133966E-002
          20 -2.083370163200959E-002
          21 -0.168467672879837     
          22  0.118292967738919     
          23 -1.509259290182881E-003
          24 -1.412226591803291E-002
          25 -1.187619788135868E-002
          26  4.206227248557479E-004
          27  1.093246333861107E-003
          28 -4.793898589578983E-004
          29 -2.833764280127709E-003
          30  1.443182825104911E-003
          31  1.390581455022798E-003
          32  1.241639459383319E-004
          33  5.662314297926808E-004
          34 -1.376088484796250E-005
          35  7.801451238670601E-002
          36  9.148597629166820E-002
          37  0.239296208208318     
          38 -0.104862542031746     
          39  0.414585831764009     
          40 -4.415237489475918E-002
          41 -8.136215491636110E-002
          42  3.727647895006089E-002
          43 -0.188156087429947     
          44 -4.122553854596415E-002
          45  0.129717507329541     
          46 -4.554875543040016E-002
          47 -4.031859650060879E-003
          48  1.069207828629633E-003
          49  1.376985700199318E-002
          50 -5.512349691006871E-003
          51 -1.709097271683280E-003
          52 -9.174650020656932E-005
          53  1.800843771889850E-003
          54  2.628089420960410E-003
          55 -5.016016615485416E-004
          56  5.930442163851558E-004
          57 -3.550092795434956E-003
          58 -5.630311861215994E-003
          59 -1.888043372071558E-003
          60 -1.888045481567317E-003
          61 -5.630293815128772E-003
          62 -3.550087578252341E-003
Sym=     6a
Ene=  -0.699444625178729     
Spin= Alpha
Occup=     2.00000000
           1  0.127713658272783     
           2  4.313718399197104E-002
           3  5.326203179221606E-002
           4  5.046773348432176E-002
           5  0.360835031930267     
           6 -4.181771674857664E-002
           7  4.935001612014345E-002
           8 -1.407849667391513E-002
           9  0.127713639815104     
          10  2.681733517247108E-002
          11  1.997796634879230E-003
          12 -8.075575489627619E-002
          13 -5.156667350670500E-002
          14 -0.201079758084500     
          15 -0.107869646624378     
          16  6.714874929937342E-002
          17  7.575163184815048E-002
          18 -8.061417208193807E-002
          19 -3.248021925216337E-002
          20  2.271469349449647E-002
          21 -0.416298418615413     
          22  3.411471108834663E-002
          23  3.033456961999910E-002
          24 -1.609349372819959E-002
          25  7.658102176582662E-002
          26  0.109945473878742     
          27  1.581336067508060E-003
          28 -1.429161943590264E-002
          29 -8.397645166563047E-003
          30  4.355026531544299E-003
          31  4.042618635018749E-003
          32  1.770073906378937E-004
          33  1.739805700803246E-003
          34 -9.252829906345975E-005
          35 -2.408268112955351E-002
          36 -0.133982202989363     
          37  0.113222458293305     
          38 -2.756894020302877E-002
          39  9.813064481851551E-002
          40 -4.967429417357431E-002
          41  2.345025608289635E-002
          42 -2.983314900756470E-003
          43  0.305891742086506     
          44 -5.779145405525682E-002
          45 -0.107825312537278     
          46  4.931067855760689E-002
          47 -5.660768421788012E-002
          48  5.561259566764611E-002
          49 -6.521108166796903E-002
          50  1.855927367490058E-002
          51  5.277488956885329E-004
          52  2.530701534475005E-003
          53 -3.058450430163538E-003
          54 -5.679235637821787E-003
          55  1.629357448468568E-003
          56 -2.048429613234770E-003
          57  2.616054564426336E-002
          58  2.512990935766448E-002
          59  2.476162196287601E-002
          60  2.476160321878591E-002
          61  2.512990203214095E-002
          62  2.616052988483333E-002
Sym=     7a
Ene=  -0.686713632276377     
Spin= Alpha
Occup=     2.00000000
           1  0.129046898348098     
           2  3.811999623947356E-002
           3  3.565547513149690E-002
           4  5.028533928701640E-002
           5  0.273248253356053     
           6 -1.881318593460969E-002
           7 -7.460443930543062E-002
           8  3.148502696752514E-002
           9  0.129046900112886     
          10  2.343649932928113E-002
          11 -1.046859978330435E-002
          12 -6.778055247575884E-002
          13  0.147185353716057     
          14 -6.738635292770036E-002
          15  0.127687024055982     
          16 -4.150225826170528E-002
          17 -0.228733262529086     
          18 -2.512313964000665E-002
          19  4.431951196188624E-002
          20 -1.418960635513328E-002
          21  0.163958530955086     
          22  1.069005074396323E-002
          23 -8.509557457627427E-002
          24  3.191423359989402E-002
          25 -3.933922695494580E-002
          26 -5.823316843635239E-002
          27 -2.009714617135048E-003
          28  8.027456762721300E-003
          29  3.804156624555580E-003
          30 -2.006594325365617E-003
          31 -1.797562299189963E-003
          32  8.559833302661627E-004
          33 -1.160749148601002E-003
          34 -8.090850020577080E-005
          35 -0.154663986822820     
          36  0.275937457929396     
          37  7.373187391213597E-002
          38 -6.312245983510309E-002
          39  0.304063055901140     
          40  9.811698078411456E-002
          41  2.551141798382818E-003
          42 -1.319934640684073E-002
          43 -0.317235966148808     
          44 -0.182951045402632     
          45 -0.170928167554750     
          46  8.952895203368197E-002
          47  5.402525781791724E-002
          48 -9.961373780714172E-002
          49  2.461517903949409E-002
          50  2.772382267100556E-003
          51 -7.451887355967247E-004
          52 -1.593150508221723E-003
          53  2.338339243818448E-003
          54  6.405374780511702E-003
          55 -2.040781451464156E-003
          56  1.035818501265708E-003
          57  2.977750311010213E-002
          58  2.683120691930447E-002
          59  3.079167011190965E-002
          60  3.079166403777659E-002
          61  2.683119892954533E-002
          62  2.977750316500450E-002
Sym=     8a
Ene=  -0.662807897261098     
Spin= Alpha
Occup=     2.00000000
           1 -7.692210440332377E-002
           2 -6.290143175507574E-003
           3 -5.969370362486991E-003
           4 -2.564146399536380E-002
           5 -5.562550980013500E-002
           6  6.763811843823919E-002
           7  5.184448356172856E-002
           8 -2.866578780450684E-002
           9 -7.692209036475695E-002
          10 -1.668770739294407E-004
          11  1.326524454026692E-002
          12  2.359434225693730E-002
          13  0.184660473834533     
          14  0.136851733881797     
          15  0.161057684917926     
          16 -7.993961263350180E-002
          17 -0.294209953815401     
          18  7.128705523168970E-002
          19  0.127476349612232     
          20 -5.866638571676166E-002
          21 -7.079637425164508E-002
          22 -2.512421699257024E-002
          23 -0.418961066916323     
          24  0.166797972504513     
          25  2.458217401941333E-002
          26  4.216755456598834E-002
          27 -8.274992796319348E-002
          28  2.708316004102203E-002
          29 -2.378283450951081E-003
          30  1.295121497851623E-003
          31  1.083161953099459E-003
          32  1.916541143058182E-003
          33 -2.758028536868516E-004
          34 -4.099350091745959E-004
          35 -0.151034515243850     
          36 -0.220156670555311     
          37  0.217321052916450     
          38 -5.751911396127103E-002
          39  0.253973151962373     
          40 -0.106631166601064     
          41  0.126807880095481     
          42 -3.627779450120985E-002
          43  0.157270337163934     
          44 -3.858917319347059E-002
          45  7.161688674793312E-002
          46 -2.317897247134924E-002
          47 -5.840426589070147E-002
          48  9.001725939642929E-002
          49 -4.971016443639357E-002
          50  8.224934381770825E-003
          51 -6.267773536982287E-004
          52  2.180667661490814E-003
          53 -1.553890307792585E-003
          54 -4.257016093186556E-003
          55  1.490904977513930E-003
          56 -1.277816461520267E-003
          57 -2.303300696882998E-002
          58 -1.533391121815017E-002
          59 -2.705108670502464E-002
          60 -2.705108382164652E-002
          61 -1.533391347091778E-002
          62 -2.303299448743230E-002
Sym=     9a
Ene=  -0.644610255757687     
Spin= Alpha
Occup=     2.00000000
           1 -0.330257008322765     
           2 -4.580450862270039E-002
           3 -2.989961558651784E-002
           4  1.208939204609163E-002
           5  2.825259677457861E-007
           6  3.671994826824421E-002
           7  0.115352583621327     
           8  0.295266540750723     
           9  0.330256839736977     
          10  4.467782385822398E-002
          11  2.636359121783663E-002
          12 -2.114380143733227E-002
          13 -1.480997023032828E-006
          14  2.188368722417081E-002
          15  6.873429153698914E-002
          16  0.175942171762032     
          17  1.861940592091434E-006
          18  1.260391607960435E-002
          19  3.958617818873926E-002
          20  0.101331871466282     
          21  2.073354447056180E-006
          22  1.759851786388341E-002
          23  5.527497358399242E-002
          24  0.141489504138550     
          25 -9.562589722489247E-007
          26  3.678067095304817E-003
          27  1.155905067384326E-002
          28  2.958895233143422E-002
          29 -2.269968717849279E-004
          30 -4.407020229418177E-005
          31  2.710670740791097E-004
          32 -4.199816983384423E-004
          33 -1.034873378301255E-003
          34 -3.936380399412200E-006
          35 -5.552290517058404E-007
          36  1.715005914701105E-002
          37  5.386839336696887E-002
          38  0.137889180151372     
          39  1.003152826962340E-006
          40  8.837063219304052E-003
          41  2.775674273336452E-002
          42  7.104955533470088E-002
          43  2.890983897518388E-006
          44  2.312239259019403E-002
          45  7.263847879159278E-002
          46  0.185939537991992     
          47 -7.302900328790417E-007
          48  5.527506042918003E-003
          49  1.735924508031117E-002
          50  4.443921526577633E-002
          51  7.130111777385710E-005
          52 -1.066948512556111E-003
          53  9.956473947822539E-004
          54 -6.689741412901048E-005
          55  4.025086251708235E-004
          56 -1.352343739090779E-003
          57 -9.606124666626065E-002
          58 -0.132108240794337     
          59 -9.677063535227394E-002
          60  9.677001475004225E-002
          61  0.132108090769758     
          62  9.606166810387209E-002
Sym=    10a
Ene=  -0.644067187561089     
Spin= Alpha
Occup=     2.00000000
           1  2.998993458002589E-002
           2 -3.978403675652718E-002
           3  6.021854285573579E-002
           4 -6.643414402404951E-003
           5  1.615423909751410E-002
           6 -0.203097466489488     