21
 energy: -29.941377372616 gnorm: 0.000548991322 xtb: 6.7.1 (edcfbbe)
C            2.56907564430807       -1.43224762683389        0.09756968447438
C            1.27777733803118       -0.71188754675722        0.03434021820135
C            0.06553422326344       -1.40556627856364       -0.01976837560709
C           -1.14111759675627       -0.73687786706926       -0.05838046962466
C           -2.46845846574293       -1.38770171778234       -0.11793259257119
N           -1.08933944185531        0.60731679546833       -0.04143777524947
F           -2.28271428784166        1.27253571784982       -0.08394715072197
C            0.02498898901613        1.35938120258088        0.00853619694451
C           -0.12133356384000        2.83157820004594        0.01648029451126
C            1.22842960549614        0.68491095603443        0.04714472308396
H            3.37207587099663       -0.84732137226790       -0.34269092131061
H            2.82887306134194       -1.61012738814618        1.14287141818441
H            2.50815348553864       -2.40030595459855       -0.39225485531313
H            0.05942933489782       -2.48406395205448       -0.03265950110544
H           -2.36896371730533       -2.46822581590455       -0.13393178414958
H           -3.01274441859886       -1.06777033455787       -1.00825804635030
H           -3.07462761143091       -1.09969905785203        0.74244086893561
H           -0.70913660455028        3.15287991368914        0.87749579704593
H            0.84869101056763        3.31646986412174        0.05060282016905
H           -0.65577717464758        3.16853135416203       -0.87329853924704
H            2.14118431911152        1.25819090843567        0.08707798970006
