[Molden Format]
[Title]
[Atoms] AU
C      1     6  0.48548493611750E+01 -0.27065557573536E+01  0.18437998172221E+00
C      2     6  0.24146492171255E+01 -0.13452724948991E+01  0.64893607460257E-01
C      3     6  0.12384173375763E+00 -0.26561353164872E+01 -0.37356815826027E-01
C      4     6 -0.21563997338544E+01 -0.13924973560554E+01 -0.11032309861733E+00
C      5     6 -0.46647104502549E+01 -0.26223761892739E+01 -0.22286030112600E+00
N      6     7 -0.20585532018534E+01  0.11476624143173E+01 -0.78306046435074E-01
F      7     9 -0.43137048247787E+01  0.24047439905334E+01 -0.15863712380676E+00
C      8     6  0.47222345371634E-01  0.25688581718350E+01  0.16131074370946E-01
C      9     6 -0.22928720538175E+00  0.53509072985325E+01  0.31143243079367E-01
C     10     6  0.23213955177632E+01  0.12942941266570E+01  0.89090614849756E-01
H     11     1  0.63722998676246E+01 -0.16012053331239E+01 -0.64759198667091E+00
H     12     1  0.53457953272529E+01 -0.30426997893467E+01  0.21597139760251E+01
H     13     1  0.47397231661802E+01 -0.45359208694869E+01 -0.74125424759443E+00
H     14     1  0.11230516672523E+00 -0.46942005454252E+01 -0.61717512456020E-01
H     15     1 -0.44766926248698E+01 -0.46642708057774E+01 -0.25309439142449E+00
H     16     1 -0.56932618346307E+01 -0.20177934963087E+01 -0.19053315705469E+01
H     17     1 -0.58102041208003E+01 -0.20781300388435E+01  0.14030099060135E+01
H     18     1 -0.13400739675433E+01  0.59580795406894E+01  0.16582267319223E+01
H     19     1  0.16037935744002E+01  0.62672197437473E+01  0.95625471252924E-01
H     20     1 -0.12392392588613E+01  0.59876564766390E+01 -0.16502950642080E+01
H     21     1  0.40462519454527E+01  0.23776362294308E+01  0.16455355201563E+00
[GTO]
           1 0
 s           4   1.00000000000000     
   51.0493630955799      -0.163120632101274     
   8.79112274068875      -0.199110245810007     
  0.706404222589298       0.318820477536558     
  0.269228134134116       0.127065041842404     
 p           4   1.00000000000000     
   5.82636561408000       0.737164515452096     
   1.51068960187200       0.682163716148503     
  0.532564832880000       0.357830539292537     
  0.212023236906000       5.398303027584788E-002
 
           2 0
 s           4   1.00000000000000     
   51.0493630955799      -0.163120632101274     
   8.79112274068875      -0.199110245810007     
  0.706404222589298       0.318820477536558     
  0.269228134134116       0.127065041842404     
 p           4   1.00000000000000     
   5.82636561408000       0.737164515452096     
   1.51068960187200       0.682163716148503     
  0.532564832880000       0.357830539292537     
  0.212023236906000       5.398303027584788E-002
 
           3 0
 s           4   1.00000000000000     
   51.0493630955799      -0.163120632101274     
   8.79112274068875      -0.199110245810007     
  0.706404222589298       0.318820477536558     
  0.269228134134116       0.127065041842404     
 p           4   1.00000000000000     
   5.82636561408000       0.737164515452096     
   1.51068960187200       0.682163716148503     
  0.532564832880000       0.357830539292537     
  0.212023236906000       5.398303027584788E-002
 
           4 0
 s           4   1.00000000000000     
   51.0493630955799      -0.163120632101274     
   8.79112274068875      -0.199110245810007     
  0.706404222589298       0.318820477536558     
  0.269228134134116       0.127065041842404     
 p           4   1.00000000000000     
   5.82636561408000       0.737164515452096     
   1.51068960187200       0.682163716148503     
  0.532564832880000       0.357830539292537     
  0.212023236906000       5.398303027584788E-002
 
           5 0
 s           4   1.00000000000000     
   51.0493630955799      -0.163120632101274     
   8.79112274068875      -0.199110245810007     
  0.706404222589298       0.318820477536558     
  0.269228134134116       0.127065041842404     
 p           4   1.00000000000000     
   5.82636561408000       0.737164515452096     
   1.51068960187200       0.682163716148503     
  0.532564832880000       0.357830539292537     
  0.212023236906000       5.398303027584788E-002
 
           6 0
 s           4   1.00000000000000     
   63.5940244669410      -0.192343884147216     
   10.9514172315237      -0.234781079249537     
  0.879993102573770       0.375937539017009     
  0.335387152965211       0.149828892718628     
 p           4   1.00000000000000     
   7.29650404814951       0.976586663156674     
   1.89187454507126       0.903722267303458     
  0.666944321108241       0.474049584615364     
  0.265522026741309       7.151606771501186E-002
 
           7 0
 s           4   1.00000000000000     
   67.8191594740697      -0.201850789245403     
   11.6790204412661      -0.246385510808000     
  0.938459125048083       0.394518855091218     
  0.357670001280168       0.157234426148285     
 p           4   1.00000000000000     
   9.58240403549692        1.37296780219284     
   2.48457427772447        1.27052889614703     
  0.875889317934415       0.666458841672068     
  0.348706630431394       0.100543312761176     
 
           8 0
 s           4   1.00000000000000     
   51.0493630955799      -0.163120632101274     
   8.79112274068875      -0.199110245810007     
  0.706404222589298       0.318820477536558     
  0.269228134134116       0.127065041842404     
 p           4   1.00000000000000     
   5.82636561408000       0.737164515452096     
   1.51068960187200       0.682163716148503     
  0.532564832880000       0.357830539292537     
  0.212023236906000       5.398303027584788E-002
 
           9 0
 s           4   1.00000000000000     
   51.0493630955799      -0.163120632101274     
   8.79112274068875      -0.199110245810007     
  0.706404222589298       0.318820477536558     
  0.269228134134116       0.127065041842404     
 p           4   1.00000000000000     
   5.82636561408000       0.737164515452096     
   1.51068960187200       0.682163716148503     
  0.532564832880000       0.357830539292537     
  0.212023236906000       5.398303027584788E-002
 
          10 0
 s           4   1.00000000000000     
   51.0493630955799      -0.163120632101274     
   8.79112274068875      -0.199110245810007     
  0.706404222589298       0.318820477536558     
  0.269228134134116       0.127065041842404     
 p           4   1.00000000000000     
   5.82636561408000       0.737164515452096     
   1.51068960187200       0.682163716148503     
  0.532564832880000       0.357830539292537     
  0.212023236906000       5.398303027584788E-002
 
          11 0
 s           3   1.00000000000000     
   3.37022769753360       0.273591105889083     
  0.613891182214980       0.264605406538605     
  0.166142911484160       8.246594753408230E-002
 
          12 0
 s           3   1.00000000000000     
   3.37022769753360       0.273591105889083     
  0.613891182214980       0.264605406538605     
  0.166142911484160       8.246594753408230E-002
 
          13 0
 s           3   1.00000000000000     
   3.37022769753360       0.273591105889083     
  0.613891182214980       0.264605406538605     
  0.166142911484160       8.246594753408230E-002
 
          14 0
 s           3   1.00000000000000     
   3.37022769753360       0.273591105889083     
  0.613891182214980       0.264605406538605     
  0.166142911484160       8.246594753408230E-002
 
          15 0
 s           3   1.00000000000000     
   3.37022769753360       0.273591105889083     
  0.613891182214980       0.264605406538605     
  0.166142911484160       8.246594753408230E-002
 
          16 0
 s           3   1.00000000000000     
   3.37022769753360       0.273591105889083     
  0.613891182214980       0.264605406538605     
  0.166142911484160       8.246594753408230E-002
 
          17 0
 s           3   1.00000000000000     
   3.37022769753360       0.273591105889083     
  0.613891182214980       0.264605406538605     
  0.166142911484160       8.246594753408230E-002
 
          18 0
 s           3   1.00000000000000     
   3.37022769753360       0.273591105889083     
  0.613891182214980       0.264605406538605     
  0.166142911484160       8.246594753408230E-002
 
          19 0
 s           3   1.00000000000000     
   3.37022769753360       0.273591105889083     
  0.613891182214980       0.264605406538605     
  0.166142911484160       8.246594753408230E-002
 
          20 0
 s           3   1.00000000000000     
   3.37022769753360       0.273591105889083     
  0.613891182214980       0.264605406538605     
  0.166142911484160       8.246594753408230E-002
 
          21 0
 s           3   1.00000000000000     
   3.37022769753360       0.273591105889083     
  0.613891182214980       0.264605406538605     
  0.166142911484160       8.246594753408230E-002
 
[MO]
Sym=     1a
Ene=   -1.02892980975960     
Spin= Alpha
Occup=     2.00000000
           1  5.973137259233376E-005
           2 -8.209955925402911E-005
           3  4.578603405232591E-005
           4 -3.592996183984972E-006
           5  2.034100361223845E-003
           6 -1.506285665734652E-003
           7  8.393562750451848E-004
           8 -4.511324155748963E-005
           9  3.625819570581032E-003
          10 -4.993764866454862E-005
          11  2.144235810216783E-003
          12  2.889845913928836E-005
          13 -4.277252668482547E-003
          14  1.767989447614510E-002
          15 -1.818990654746579E-002
          16  5.393598209848088E-004
          17 -2.783129987144037E-003
          18 -3.309384702312316E-004
          19 -6.306013249959951E-003
          20 -8.193221666933064E-005
          21 -0.156276235314856     
          22  0.212891962914483     
          23 -0.118674469471593     
          24  7.596751722222600E-003
          25 -0.860757903682792     
          26  1.699235232660274E-003
          27 -9.521584438353785E-004
          28  5.995740459270635E-005
          29 -4.278774333680755E-003
          30  2.475994744607729E-002
          31 -5.465471637601499E-003
          32  9.455631232468381E-004
          33 -2.783871711577015E-003
          34  5.182478219481589E-003
          35  3.603818862402402E-003
          36  2.339259591290192E-004
          37  3.625764955754365E-003
          38 -1.847475594532986E-003
          39 -1.087231521135857E-003
          40 -7.442492552931107E-005
          41  3.725460379184919E-006
          42 -4.247948352335946E-006
          43  3.727224715435921E-006
          44 -6.844694899461556E-004
          45 -4.323488380244941E-004
          46  3.584326849155999E-004
          47  4.082661074514233E-004
          48  4.075720682562315E-004
          49 -4.324965181341219E-004
          50  3.588362232145058E-004
          51 -6.844680214247845E-004
Sym=     2a
Ene=  -0.891197556030298     
Spin= Alpha
Occup=     2.00000000
           1  2.025671392824359E-003
           2 -6.406281279742431E-003
           3  3.572398295816443E-003
           4 -2.705560833134052E-004
           5  7.712163008450781E-002
           6 -4.958164216983866E-002
           7  2.763090469410049E-002
           8 -1.520000889371784E-003
           9  0.113686561440502     
          10 -3.416286099848247E-002
          11  7.360676212584877E-002
          12 -4.053728023826755E-004
          13  0.274574771366962     
          14  7.219265342716821E-002
          15  0.143509115313781     
          16  4.466164776807727E-003
          17  2.488910609777074E-002
          18  2.974338379305325E-002
          19  2.080952828649564E-002
          20  1.408073241075602E-003
          21  0.494173877611048     
          22  0.187969240224986     
          23 -0.104733240044863     
          24  6.058755521547859E-003
          25 -8.244027449801611E-002
          26  7.056583837919056E-002
          27 -3.932452147976367E-002
          28  2.369474170877792E-003
          29  0.274605283774128     
          30 -8.386760680936253E-002
          31 -0.137016898202093     
          32 -4.487368985667327E-003
          33  2.490047801622060E-002
          34 -2.009789195841526E-003
          35 -3.628007204625491E-002
          36 -4.092022929015210E-004
          37  0.113692536912580     
          38 -8.051308706674405E-002
          39 -9.702707387959451E-003
          40 -3.076508340353860E-003
          41  5.086946835625516E-004
          42  5.173442551898247E-004
          43  5.087098419970998E-004
          44  7.984028089781270E-003
          45  2.141895371380207E-003
          46  2.954978239496505E-003
          47  2.978867737644986E-003
          48  2.981723438761226E-003
          49  2.143489664466469E-003
          50  2.958587316120183E-003
          51  7.984744516539756E-003
Sym=     3a
Ene=  -0.861426325331413     
Spin= Alpha
Occup=     2.00000000
           1  1.498970917588350E-006
           2 -9.913466907935362E-004
           3 -1.778267199191819E-003
           4 -5.686161312675261E-005
           5  1.257384346346855E-005
           6 -1.742641815385959E-002
           7 -3.131502852013623E-002
           8 -1.000681587066222E-003
           9  0.114129708795069     
          10 -7.200075968662406E-002
          11  4.171847391064326E-002
          12 -2.226010483928019E-003
          13  0.365267302594995     
          14 -2.997784120453294E-002
          15  6.929555829043754E-002
          16 -2.517253093879544E-004
          17  0.107810498951626     
          18  7.079086820074097E-002
          19  5.167156175085911E-002
          20  3.395163839485731E-003
          21  2.447259389777575E-005
          22 -0.215966722800622     
          23 -0.388258975679582     
          24 -1.239218887722717E-002
          25  8.445904340023559E-006
          26 -6.705619590861230E-002
          27 -0.120537664390998     
          28 -3.847279030248950E-003
          29 -0.365262467350093     
          30  7.463985550567288E-002
          31  1.095939405516155E-002
          32  2.815789393204841E-003
          33 -0.107844680037079     
          34  6.602973930396224E-003
          35  8.746561265069369E-002
          36  1.030669615438703E-003
          37 -0.114108696839433     
          38  7.334524265755320E-002
          39 -3.929561022562010E-002
          40  2.314445861578847E-003
          41 -2.755811447798475E-004
          42  2.105652476122993E-007
          43  2.759791128078485E-004
          44  1.600750577045125E-002
          45  1.280140473944118E-002
          46  2.015595470650133E-002
          47  2.009021485247910E-002
          48 -2.010719567859269E-002
          49 -1.281193167866880E-002
          50 -2.016944109193172E-002
          51 -1.600592401133129E-002
Sym=     4a
Ene=  -0.834643559922659     
Spin= Alpha
Occup=     2.00000000
           1  7.406573231242174E-002
           2 -5.902116707974386E-002
           3  3.291253326897589E-002
           4 -2.487718667624464E-003
           5  0.350448685729811     
           6 -7.853863856271237E-002
           7  4.374493055695129E-002
           8 -1.646662307244318E-003
           9  0.276803519459510     
          10  5.248841181449135E-002
          11  8.061203620432605E-002
          12  3.204915725009990E-003
          13  3.675576248701816E-002
          14  0.123582937211655     
          15 -0.114852515494842     
          16  3.514067429878073E-003
          17 -1.420574029254948E-002
          18  5.476073408811383E-003
          19 -1.754650794622156E-002
          20 -1.726607778608964E-006
          21 -0.304108211711427     
          22  9.133779002988268E-002
          23 -5.089407650330612E-002
          24  2.952332918131595E-003
          25  0.243740607170593     
          26 -0.258485265691527     
          27  0.144093275841956     
          28 -9.278546134717489E-003
          29  3.677627267028314E-002
          30  0.162632553446565     
          31 -4.466104853002785E-002
          32  5.762639533727227E-003
          33 -1.420364542927447E-002
          34  1.779004389319324E-002
          35  4.579032198419248E-003
          36  7.043352542289255E-004
          37  0.276814998595512     
          38 -4.083108953619875E-002
          39 -8.712865302706370E-002
          40 -2.172748700416905E-003
          41  1.242179792738765E-002
          42  1.291058991965297E-002
          43  1.242199599508394E-002
          44  4.817062060368311E-002
          45  2.899944293819479E-003
          46 -3.680261575636836E-003
          47 -3.708198907665365E-003
          48 -3.709950332427357E-003
          49  2.899644309879157E-003
          50 -3.682235006482952E-003
          51  4.817248320339372E-002
Sym=     5a
Ene=  -0.805437230276198     
Spin= Alpha
Occup=     2.00000000
           1 -0.171954831093212     
           2  8.595690940206908E-002
           3 -4.792410888821613E-002
           4  3.271881857583648E-003
           5 -0.338733387930385     
           6 -4.355262313003937E-002
           7  2.431602955206482E-002
           8 -3.305977402848985E-003
           9 -1.083535939181897E-002
          10 -0.191369370193513     
          11 -2.036011522902980E-002
          12 -7.988090927927863E-003
          13  0.215157268971460     
          14 -2.593246019150397E-002
          15 -0.122176182119531     
          16 -2.526306319731077E-003
          17  0.164720289341895     
          18  7.444209740167936E-002
          19  1.680970489875467E-002
          20  3.129825199056192E-003
          21 -0.182325609520070     
          22  0.133506208726404     
          23 -7.444931725972032E-002
          24  4.057274490052198E-003
          25  0.167235533256513     
          26 -0.276936711574257     
          27  0.154367226291341     
          28 -1.023124746178254E-002
          29  0.215124721424645     
          30  9.012084676773052E-002
          31  8.649131465825753E-002
          32  4.128769358545296E-003
          33  0.164814342632216     
          34  2.493530262064439E-002
          35 -7.219382344005945E-002
          36  3.051315213728455E-004
          37 -1.088243465153797E-002
          38 -8.347446542204261E-002
          39  0.173575864046757     
          40 -1.796832167526899E-003
          41 -3.567534785264036E-002
          42 -3.775480166642040E-002
          43 -3.567431992902573E-002
          44  4.186236141130166E-003
          45  4.488217260262373E-002
          46  3.779759880550217E-002
          47  3.787493134698575E-002
          48  3.791781780617877E-002
          49  4.492337710533282E-002
          50  3.783712187555657E-002
          51  4.177779458532364E-003
Sym=     6a
Ene=  -0.799440540339225     
Spin= Alpha
Occup=     2.00000000
           1 -2.383132111084341E-005
           2  1.719001688054707E-002
           3  3.087540662405755E-002
           4  9.883790991172192E-004
           5 -3.829880034843569E-005
           6  0.107797837512950     
           7  0.193800814315809     
           8  6.199463634525982E-003
           9 -0.369421642859628     
          10  3.815695911001456E-002
          11  2.202835535057857E-003
          12  1.316025647187109E-003
          13 -7.322922202826100E-002
          14 -0.171853740628710     
          15  0.186809193288477     
          16 -4.540237285530714E-003
          17  2.176399813387699E-002
          18 -2.578111066129033E-002
          19  4.386365579160483E-002
          20 -4.979788510338266E-004
          21  4.717890755155608E-006
          22 -0.109799110445216     
          23 -0.197453510794462     
          24 -6.269712101409676E-003
          25  2.963778380281423E-005
          26 -7.953678422309311E-002
          27 -0.142876505606961     
          28 -4.546050421377742E-003
          29  7.321742217025658E-002
          30  0.249162344919024     
          31 -4.788000588861480E-002
          32  9.017018385031463E-003
          33 -2.182785055188435E-002
          34  5.083980816454618E-002
          35  1.181425628688213E-003
          36  1.941570813887490E-003
          37  0.369393797611359     
          38 -1.824933739901981E-002
          39  3.363476102366480E-002
          40 -1.834866398648992E-004
          41  1.127121842763255E-002
          42 -4.568729083051958E-006
          43 -1.128289378491277E-002
          44 -0.111946603952454     
          45 -1.329766634887575E-002
          46  1.708439189902722E-002
          47  1.680193036888770E-002
          48 -1.682791495777328E-002
          49  1.328069707741447E-002
          50 -1.710554087094821E-002
          51  0.111933463387346     
Sym=     7a
Ene=  -0.793629804743469     
Spin= Alpha
Occup=     2.00000000
           1 -0.112495589885654     
           2  4.889317089433150E-002
           3 -2.725860215664801E-002
           4  1.787934418871266E-003
           5 -0.169529534473420     
           6 -3.981392038731166E-002
           7  2.221457547422917E-002
           8 -2.476170791671549E-003
           9 -0.110969638388272     
          10 -1.246278279609441E-002
          11  3.681447342406970E-002
          12 -2.806639280451179E-004
          13 -0.115482571985902     
          14  0.153030864820910     
          15  0.158290321398051     
          16  7.814545087854232E-003
          17 -0.249743000925429     
          18 -7.504058588638433E-002
          19 -2.799251918570131E-002
          20 -3.358344098132330E-003
          21  2.674879752125074E-002
          22  0.251602571313765     
          23 -0.140090796260535     
          24  8.760811839614387E-003
          25  0.195678469181534     
          26 -0.330019792473830     
          27  0.184040337557829     
          28 -1.179154126816776E-002
          29 -0.115466284929194     
          30 -5.395966757328647E-002
          31 -0.213721111575878     
          32 -4.043360413204216E-003
          33 -0.249961119465402     
          34 -1.577421596272363E-002
          35  7.859596288006453E-002
          36  2.473730634244493E-005
          37 -0.111021817529083     
          38 -3.784232401498145E-002
          39 -8.806516548208772E-003
          40 -1.725652980996450E-003
          41 -2.660109192565290E-002
          42 -2.731973594401832E-002
          43 -2.659961149247033E-002
          44 -5.317746690856036E-002
          45 -6.868029082552807E-002
          46 -6.431679757807721E-002
          47 -6.455663302773823E-002
          48 -6.464401618440505E-002
          49 -6.877791248267201E-002
          50 -6.440038740410897E-002
          51 -5.320636747166749E-002
Sym=     8a
Ene=  -0.770999588644270     
Spin= Alpha
Occup=     2.00000000
           1 -3.698790055340661E-003
           2  1.060968306195346E-003
           3 -3.521289320191100E-004
           4 -8.295135243711862E-003
           5 -5.514360585353332E-004
           6 -5.500541092597888E-004
           7  1.624343718073786E-003
           8 -4.574202234312255E-002
           9  1.781194138252775E-003
          10  2.776780916934337E-003
          11  1.290803976321643E-003
          12 -7.710339427689065E-002
          13 -7.506257318342973E-004
          14  1.089855941815749E-002
          15  2.281686575488103E-003
          16 -0.243980127964588     
          17 -1.962779156028573E-003
          18  2.034568378302910E-003
          19  3.789241558807872E-004
          20 -5.706665206655023E-002
          21 -9.503736544963001E-004
          22  2.217656282454064E-002
          23  7.052472617172939E-003
          24 -0.621693523172642     
          25 -1.528331740866724E-003
          26  2.386326405803707E-002
          27  2.089534180506281E-003
          28 -0.489563533820897     
          29 -6.653006800770320E-004
          30  1.071722464806711E-002
          31  2.144361446680226E-003
          32 -0.244000332749191     
          33 -8.865152117059059E-004
          34  2.404823857837373E-003
          35  7.196930514560097E-004
          36 -5.706357173903476E-002
          37  1.592884519451564E-003
          38  2.505593135911395E-003
          39  9.230670343551919E-004
          40 -7.711988027187318E-002
          41  6.163625784124593E-004
          42 -4.692887099956212E-003
          43  6.323566587935164E-004
          44  4.060201850148007E-004
          45 -3.766715772121165E-004
          46  2.479998472808904E-002
          47 -2.626109696074592E-002
          48 -2.594300589355248E-002
          49 -6.672424657384466E-006
          50  2.513145103951045E-002
          51  4.151792959646729E-004
Sym=     9a
Ene=  -0.769517098944068     
Spin= Alpha
Occup=     2.00000000
           1 -2.151308566169687E-004
           2  9.573009571737625E-003
           3  1.709734193766429E-002
           4  5.359425783975691E-004
           5 -1.011167308410972E-004
           6  4.833415556320553E-002
           7  8.718327793652876E-002
           8  2.713941075667825E-003
           9 -7.362402968623603E-002
          10 -5.666043898858712E-002
          11 -4.247023905497743E-002
          12 -2.865376489677123E-003
          13  2.815565592648852E-002
          14 -0.155057852660897     
          15 -0.199595191066356     
          16 -8.703308223785533E-003
          17  0.352468518600302     
          18  4.858137549271522E-002
          19 -1.008014441661283E-002
          20  1.885031982028832E-003
          21 -6.554046494927914E-005
          22  0.123688604849217     
          23  0.222872964298532     
          24  6.158509069953891E-003
          25 -1.225180278715332E-004
          26  7.167254686118230E-002
          27  0.127957120256004     
          28  3.343801697580439E-003
          29 -2.798786715238388E-002
          30 -8.749633700624458E-002
          31 -0.236946988185168     
          32 -5.933446116903896E-003
          33 -0.352518302554866     
          34 -3.405623734656556E-002
          35  3.589629859238658E-002
          36 -1.243027380561163E-003
          37  7.399453360060358E-002
          38 -6.300605447867583E-003
          39 -7.038321597746046E-002
          40 -9.745703720463526E-004
          41  6.842125793853585E-003
          42 -6.838360141626434E-005
          43 -6.955884946580627E-003
          44 -2.310264603160654E-003
          45  0.124235671836553     
          46  0.106514073274431     
          47  0.106936473696117     
          48 -0.107111044200507     
          49 -0.124278492714000     
          50 -0.106527303318509     
          51  2.456122109984039E-003
Sym=    10a
Ene=  -0.763496366943476     
Spin= Alpha
Occup=     2.00000000
           1 -0.361177319648375     
           2  6.049157272433491E-002
           3 -3.366126391454925E-002
           4 -5.073626886717309E-004
           5 -0.103385044886975     
           6 -0.216457733342423     
           7  0.120651863577726     
           8 -1.122458830523930E-002
           9  0.177584011317381     
          10 -6.001889215753455E-002
          11  2.125530185964719E-002
          12 -2.317093883119997E-003
          13 -3.261043777256417E-002
          14  0.115887825493572     
          15 -0.102487857323604     
          16  5.615393823995975E-003
          17 -0.132854001413909     
          18  4.850630702460649E-003
          19 -3.115707385726551E-002
          20  3.508814557158237E-004
          21 -3.134512279219674E-002
          22 -0.215492326627112     
          23  0.119665953513804     
          24 -3.953979783750162E-004
          25 -9.692575757857785E-002
          26  0.340623998078858     
          27 -0.190235010228414     
          28  1.882741363423327E-002
          29 -3.252937755240205E-002
          30  0.148156812066538     
          31 -4.434747851575046E-002
          32  7.499717557729877E-003
          33 -0.132308823982784     
          34  2.907177754388556E-002
          35  1.217289728248408E-002
          36  1.740788750948141E-003
          37  0.177438159446718     
          38 -4.966948577828006E-002
          39  4.002299570327103E-002
          40 -1.722959125132826E-003
          41 -0.106260500455761     
          42 -0.112925758528301     
          43 -0.106243016198026     
          44  4.866644400560569E-002
          45 -2.970573361929846E-002
          46 -5.310301364542151E-002
          47 -5.244558604499255E-002
          48 -5.230385023793313E-002
          49 -2.952317322606071E-002
          50 -5.295679816692223E-002
          51  4.865049677664565E-002
Sym=    11a
Ene=  -0.734034219426846     
Spin= Alpha
Occup=     2.00000000
           1 -0.324703753234636     
           2 -5.623806335158343E-002
           3  3.165231419939769E-002
           4 -7.238287730065309E-003
           5  0.195612950371574     
           6 -0.170627245405800     
           7  9.566818974395375E-002
           8 -1.047894603772075E-002
           9 -7.110669805714771E-002
          10  0.196151143910746     
          11  0.116464526085563     
          12  7.478255923899618E-003
          13 -9.978453135520909E-002
          14 -0.101264596792019     
          15  0.101866431328857     
          16 -2.853022029354980E-003
          17  0.188972366925066     
          18 -8.791517715681142E-002
          19  1.815937904356922E-002
          20 -3.059901008403848E-003
          21  2.400419793149562E-003
          22  5.047305363282911E-002
          23 -2.802600488965178E-002
          24  2.879446450335604E-003
          25 -2.467666716098610E-003
          26 -9.912604764527040E-002
          27  5.564771898616321E-002
          28 -2.016099943030661E-003
          29 -0.100186082319079     
          30 -0.140177614020461     
          31  3.242574957973030E-002
          32 -5.130848099376298E-003
          33  0.189070795987687     
          34 -6.192491614427169E-002
          35  6.547175370628014E-002
          36 -1.586567916524326E-003
          37 -7.082128811860210E-002
          38  4.867773657888264E-003
          39 -0.228595408462936     