[Molden Format]
[Title]
[Atoms] AU
Ag     1    47  0.00000000000000E+00  0.00000000000000E+00  0.00000000000000E+00
[GTO]
           1 0
 d           3   1.00000000000000     
   1.43742141851978       0.717003785279636     
  0.650148324836261       0.468156838122878     
  0.319376271343110       5.797024240127864E-002
 s           4   1.00000000000000     
   2.78237921972552       1.694558928181241E-002
  0.384594192748430      -0.195144103882343     
  0.111462147271689       0.162154054304666     
  6.387418704342271E-002  1.571076008050789E-002
 p           4   1.00000000000000     
  0.635797739201885      -1.457851352986357E-002
  0.295026408931340      -4.217482440881537E-002
  7.931438357438800E-002  4.520163357621176E-002
  4.412455760034868E-002  9.827801599046905E-003
 
[MO]
Sym=     1a
Ene=  -0.722034526649358     
Spin= Alpha
Occup=     2.00000000
           1  0.866025403784438     
           2 -0.866025403784438     
           3  0.000000000000000E+000
           4  0.000000000000000E+000
           5  0.000000000000000E+000
           6  0.000000000000000E+000
           7  0.000000000000000E+000
           8  0.000000000000000E+000
           9  0.000000000000000E+000
          10  0.000000000000000E+000
Sym=     2a
Ene=  -0.722034526649358     
Spin= Alpha
Occup=     2.00000000
           1  0.500000000000000     
           2  0.500000000000000     
           3  -1.00000000000000     
           4  0.000000000000000E+000
           5  0.000000000000000E+000
           6  0.000000000000000E+000
           7  0.000000000000000E+000
           8  0.000000000000000E+000
           9  0.000000000000000E+000
          10  0.000000000000000E+000
Sym=     3a
Ene=  -0.722034526649358     
Spin= Alpha
Occup=     2.00000000
           1  0.000000000000000E+000
           2  0.000000000000000E+000
           3  0.000000000000000E+000
           4   1.00000000000000     
           5  0.000000000000000E+000
           6  0.000000000000000E+000
           7  0.000000000000000E+000
           8  0.000000000000000E+000
           9  0.000000000000000E+000
          10  0.000000000000000E+000
Sym=     4a
Ene=  -0.722034526649358     
Spin= Alpha
Occup=     2.00000000
           1  0.000000000000000E+000
           2  0.000000000000000E+000
           3  0.000000000000000E+000
           4  0.000000000000000E+000
           5   1.00000000000000     
           6  0.000000000000000E+000
           7  0.000000000000000E+000
           8  0.000000000000000E+000
           9  0.000000000000000E+000
          10  0.000000000000000E+000
Sym=     5a
Ene=  -0.722034526649358     
Spin= Alpha
Occup=     2.00000000
           1  0.000000000000000E+000
           2  0.000000000000000E+000
           3  0.000000000000000E+000
           4  0.000000000000000E+000
           5  0.000000000000000E+000
           6   1.00000000000000     
           7  0.000000000000000E+000
           8  0.000000000000000E+000
           9  0.000000000000000E+000
          10  0.000000000000000E+000
Sym=     6a
Ene=  -0.580823199406506     
Spin= Alpha
Occup=     0.00000000
           1  0.000000000000000E+000
           2  0.000000000000000E+000
           3  0.000000000000000E+000
           4  0.000000000000000E+000
           5  0.000000000000000E+000
           6  0.000000000000000E+000
           7   1.00000000000000     
           8  0.000000000000000E+000
           9  0.000000000000000E+000
          10  0.000000000000000E+000
Sym=     7a
Ene=  -0.367623694917256     
Spin= Alpha
Occup=     0.00000000
           1  0.000000000000000E+000
           2  0.000000000000000E+000
           3  0.000000000000000E+000
           4  0.000000000000000E+000
           5  0.000000000000000E+000
           6  0.000000000000000E+000
           7  0.000000000000000E+000
           8   1.00000000000000     
           9  0.000000000000000E+000
          10  0.000000000000000E+000
Sym=     8a
Ene=  -0.367623694917256     
Spin= Alpha
Occup=     0.00000000
           1  0.000000000000000E+000
           2  0.000000000000000E+000
           3  0.000000000000000E+000
           4  0.000000000000000E+000
           5  0.000000000000000E+000
           6  0.000000000000000E+000
           7  0.000000000000000E+000
           8  0.000000000000000E+000
           9   1.00000000000000     
          10  0.000000000000000E+000
Sym=     9a
Ene=  -0.367623694917256     
Spin= Alpha
Occup=     0.00000000
           1  0.000000000000000E+000
           2  0.000000000000000E+000
           3  0.000000000000000E+000
           4  0.000000000000000E+000
           5  0.000000000000000E+000
           6  0.000000000000000E+000
           7  0.000000000000000E+000
           8  0.000000000000000E+000
           9  0.000000000000000E+000
          10   1.00000000000000     
