[Molden Format]
[Title]
[Atoms] AU
O      1     8  0.71060660205467E+01  0.88883473586934E+00 -0.28038525323245E+00
I      2    53  0.54737100687012E+01 -0.21146482149002E+01 -0.55463906633015E+00
C      3     6  0.16491878344402E+01 -0.90977218692141E+00 -0.20280336575773E+00
C      4     6 -0.32527136662141E+00 -0.26166534853423E+01 -0.26689862107959E+00
C      5     6 -0.27649991314732E+01 -0.17003382800286E+01 -0.20846086690326E-01
C      6     6 -0.31910291296317E+01  0.86661478298817E+00  0.28016823956827E+00
C      7     6 -0.11794119676430E+01  0.25421970824041E+01  0.33857227702681E+00
C      8     6  0.12688471019619E+01  0.16526410028835E+01  0.95736588495538E-01
H      9     1  0.25684804290038E-01 -0.46115512037122E+01 -0.50112231384259E+00
H     10     1 -0.43354991292714E+01 -0.30015769086857E+01 -0.63984299400491E-01
H     11     1 -0.50995805781371E+01  0.15612675050852E+01  0.47022638046592E+00
H     12     1 -0.15110837479344E+01  0.45410597575408E+01  0.57269692966832E+00
H     13     1  0.28833792207723E+01  0.29019254128203E+01  0.13327859110856E+00
[GTO]
           1 0
 s           4   1.00000000000000     
   69.1379619061966      -0.204787563700778     
   11.9061291327073      -0.249970231368273     
  0.956708277443407       0.400258802406396     
  0.364625204960737       0.159522066676936     
 p           4   1.00000000000000     
   8.21241932577816        1.13215567991868     
   2.12935769970981        1.04768407822548     
  0.750664482023609       0.549565082171590     
  0.298852465432831       8.290848659276662E-002
 
           2 0
 s           4   1.00000000000000     
   4.01162386227179       2.229639191655230E-002
  0.554506456195055      -0.256763535808992     
  0.160705703437245       0.213356424819949     
  9.209356190917939E-002  2.067164842935832E-002
 p           4   1.00000000000000     
   2.11164369304120      -6.536425560776801E-002
  0.979856670271422      -0.189095136292427     
  0.263422952797140       0.202666144590931     
  0.146548718279452       4.406395305437869E-002
 d           3   1.00000000000000     
   1.40527137125187      -6.001000641404181E-002
  0.209619811637925       6.305531614656772E-002
  0.102798220867168       1.430952821123767E-002
 
           3 0
 s           4   1.00000000000000     
   51.0493630955799      -0.163120632101274     
   8.79112274068875      -0.199110245810007     
  0.706404222589298       0.318820477536558     
  0.269228134134116       0.127065041842404     
 p           4   1.00000000000000     
   5.82636561408000       0.737164515452096     
   1.51068960187200       0.682163716148503     
  0.532564832880000       0.357830539292537     
  0.212023236906000       5.398303027584788E-002
 
           4 0
 s           4   1.00000000000000     
   51.0493630955799      -0.163120632101274     
   8.79112274068875      -0.199110245810007     
  0.706404222589298       0.318820477536558     
  0.269228134134116       0.127065041842404     
 p           4   1.00000000000000     
   5.82636561408000       0.737164515452096     
   1.51068960187200       0.682163716148503     
  0.532564832880000       0.357830539292537     
  0.212023236906000       5.398303027584788E-002
 
           5 0
 s           4   1.00000000000000     
   51.0493630955799      -0.163120632101274     
   8.79112274068875      -0.199110245810007     
  0.706404222589298       0.318820477536558     
  0.269228134134116       0.127065041842404     
 p           4   1.00000000000000     
   5.82636561408000       0.737164515452096     
   1.51068960187200       0.682163716148503     
  0.532564832880000       0.357830539292537     
  0.212023236906000       5.398303027584788E-002
 
           6 0
 s           4   1.00000000000000     
   51.0493630955799      -0.163120632101274     
   8.79112274068875      -0.199110245810007     
  0.706404222589298       0.318820477536558     
  0.269228134134116       0.127065041842404     
 p           4   1.00000000000000     
   5.82636561408000       0.737164515452096     
   1.51068960187200       0.682163716148503     
  0.532564832880000       0.357830539292537     
  0.212023236906000       5.398303027584788E-002
 
           7 0
 s           4   1.00000000000000     
   51.0493630955799      -0.163120632101274     
   8.79112274068875      -0.199110245810007     
  0.706404222589298       0.318820477536558     
  0.269228134134116       0.127065041842404     
 p           4   1.00000000000000     
   5.82636561408000       0.737164515452096     
   1.51068960187200       0.682163716148503     
  0.532564832880000       0.357830539292537     
  0.212023236906000       5.398303027584788E-002
 
           8 0
 s           4   1.00000000000000     
   51.0493630955799      -0.163120632101274     
   8.79112274068875      -0.199110245810007     
  0.706404222589298       0.318820477536558     
  0.269228134134116       0.127065041842404     
 p           4   1.00000000000000     
   5.82636561408000       0.737164515452096     
   1.51068960187200       0.682163716148503     
  0.532564832880000       0.357830539292537     
  0.212023236906000       5.398303027584788E-002
 
           9 0
 s           3   1.00000000000000     
   3.37022769753360       0.273591105889083     
  0.613891182214980       0.264605406538605     
  0.166142911484160       8.246594753408230E-002
 
          10 0
 s           3   1.00000000000000     
   3.37022769753360       0.273591105889083     
  0.613891182214980       0.264605406538605     
  0.166142911484160       8.246594753408230E-002
 
          11 0
 s           3   1.00000000000000     
   3.37022769753360       0.273591105889083     
  0.613891182214980       0.264605406538605     
  0.166142911484160       8.246594753408230E-002
 
          12 0
 s           3   1.00000000000000     
   3.37022769753360       0.273591105889083     
  0.613891182214980       0.264605406538605     
  0.166142911484160       8.246594753408230E-002
 
          13 0
 s           3   1.00000000000000     
   3.37022769753360       0.273591105889083     
  0.613891182214980       0.264605406538605     
  0.166142911484160       8.246594753408230E-002
 
[MO]
Sym=     1a
Ene=  -0.755283714242295     
Spin= Alpha
Occup=     2.00000000
           1  6.016852314213263E-002
           2 -3.154975398453101E-002
           3 -5.652572272577907E-002
           4 -5.156887522471012E-003
           5  0.942376922570874     
           6  1.415560209782646E-003
           7 -1.440149229863682E-002
           8 -1.834758414076960E-003
           9  5.630616854701623E-003
          10 -4.812592086589723E-003
          11 -8.180247681118995E-004
          12 -8.961247821363464E-003
          13 -1.490136016297690E-003
          14 -1.205987664279305E-004
          15  7.674908311250650E-002
          16  4.148057612324976E-002
          17 -1.684652588086965E-002
          18 -4.273095930789213E-003
          19  1.153914437102063E-002
          20  9.700165225328289E-003
          21  4.689670204432754E-003
          22 -8.021470871378960E-005
          23  3.204061506462087E-004
          24  1.125312936644010E-003
          25  4.847582294314563E-005
          26 -6.324651365540599E-005
          27  2.854488579590071E-006
          28  2.623182111947638E-004
          29 -9.868065556485770E-005
          30 -2.674963156151929E-005
          31  2.824493801266575E-004
          32  6.401130202433841E-004
          33 -6.492903997022015E-004
          34 -1.097924402535408E-004
          35  1.025949128940652E-002
          36  3.037816892968261E-003
          37 -9.354942584862132E-003
          38 -1.199496662195313E-003
          39 -1.039332465155874E-002
          40 -7.149242709689259E-005
          41 -1.682017456820782E-005
          42 -4.362401127024858E-005
          43 -1.618454194577583E-002
Sym=     2a
Ene=  -0.677716397817268     
Spin= Alpha
Occup=     2.00000000
           1 -4.669746898862841E-002
           2  1.814057235921636E-003
           3  1.427556157796431E-002
           4  1.631667647323550E-003
           5 -7.822384438811750E-002
           6 -5.739711350499027E-002
           7  7.520770550500418E-003
           8  4.034723955257034E-003
           9  1.486119827777134E-002
          10 -6.911443427020369E-003
          11 -7.949754850750971E-003
          12 -8.899155542648541E-003
          13 -2.503964730035504E-003
          14  6.195799289280270E-004
          15  0.321477805725237     
          16 -0.129236610123440     
          17  3.024500763132157E-002
          18  1.095966795391569E-002
          19  0.305046120389781     
          20 -2.124716272323028E-003
          21  0.113403896770138     
          22  1.227870020736233E-002
          23  0.249616391296412     
          24  9.070007373657582E-002
          25  4.908722619636911E-002
          26 -2.401554431412529E-004
          27  0.216049546601382     
          28  8.574083832232957E-002
          29 -3.745042749714498E-002
          30 -9.211138877970130E-003
          31  0.220608614746723     
          32  2.409614466680916E-002
          33 -9.349701729655790E-002
          34 -1.152022209260684E-002
          35  0.259272838472785     
          36 -7.363111416800315E-002
          37 -8.717757674030949E-002
          38 -5.026365814314557E-003
          39  5.291674123606894E-002
          40  3.850802859111737E-002
          41  3.130857598530041E-002
          42  3.141112752995889E-002
          43  3.818492482165967E-002
Sym=     3a
Ene=  -0.645158278826324     
Spin= Alpha
Occup=     2.00000000
           1  0.165792258142012     
           2 -7.131888482610318E-003
           3 -1.871451030256894E-002
           4 -1.968786534202836E-003
           5  2.755708039638756E-002
           6  9.269502016127791E-002
           7  4.491537163244042E-002
           8  1.227207442844691E-004
           9 -8.230425859512220E-003
          10  1.191334507373446E-002
          11 -3.682919214222244E-003
          12  1.249879853094269E-002
          13  1.790729012203717E-003
          14  1.491782280810134E-003
          15 -0.199852251147852     
          16  5.964412004527812E-002
          17  0.155163143404547     
          18  1.313702787040461E-002
          19 -0.346104360935029     
          20 -4.346221280723526E-002
          21 -1.597052170825148E-002
          22  9.310071771091550E-004
          23 -6.591366837994082E-002
          24 -9.477220567093116E-002
          25  0.117595495806765     
          26  1.835259849116225E-002
          27  0.266112118495739     
          28  6.932184382772165E-002
          29  8.356734973343877E-002
          30  4.767982429093139E-003
          31  0.373284598691814     
          32 -1.134707324665519E-002
          33 -5.428502710168430E-002
          34 -5.178161259900189E-003
          35  0.185776869816137     
          36 -0.102471902147199     
          37  8.115908613670474E-002
          38  1.485441630184582E-002
          39 -0.113719957315568     
          40 -2.219980959323424E-002
          41  7.226383129701043E-002
          42  9.995148130987530E-002
          43  4.539877904263571E-002
Sym=     4a
Ene=  -0.643258162053946     
Spin= Alpha
Occup=     2.00000000
           1  0.146480572533710     
           2  5.263425573425610E-003
           3 -2.137197720750733E-002
           4 -2.829764382496819E-003
           5  6.084714719823553E-002
           6  0.105351419557474     
           7  4.846688891306970E-004
           8 -5.418317951790630E-003
           9 -1.034065170750812E-002
          10  1.237726646853778E-002
          11 -2.036614761029658E-003
          12  1.380889478199143E-002
          13  2.152119380279163E-003
          14  1.241425183137545E-003
          15 -0.277945167753080     
          16 -1.998062202706255E-002
          17 -0.120380024611854     
          18 -1.157562825170512E-002
          19  0.112850296534791     
          20 -0.165522634981761     
          21 -1.980828096087391E-002
          22  7.905791148584019E-003
          23  0.378549401518036     
          24  1.208568244767860E-003
          25  5.021225326067916E-002
          26  5.297484628460015E-003
          27  0.282746045383791     
          28 -8.514116911174215E-003
          29 -0.108380212213606     
          30 -1.112010402838055E-002
          31 -4.787577492158772E-002
          32 -0.145704850886626     
          33 -2.169506780191925E-002
          34  6.488196930348526E-003
          35 -0.327165223861584     
          36 -1.085655979315094E-002
          37  7.121004752649820E-002
          38  8.466704020102167E-003
          39  3.438697156608764E-002
          40  0.111843110826333     
          41  8.072912584049600E-002
          42 -1.364447226050039E-002
          43 -8.774157899039961E-002
Sym=     5a
Ene=  -0.625279851423419     
Spin= Alpha
Occup=     2.00000000
           1 -0.764985805476657     
           2  1.652901387622668E-002
           3 -1.838414617594086E-003
           4 -8.851629285366951E-004
           5  0.220537927629930     
           6 -0.133418912796747     
           7 -0.264272561501019     
           8 -2.457123890667526E-002
           9  6.137925191538232E-003
          10 -4.691709273740610E-002
          11  4.077916754586787E-002
          12 -5.829883125780878E-002
          13 -4.796327332013444E-003
          14 -9.160847626300865E-003
          15 -4.424952351732726E-002
          16  7.031011151382019E-002
          17 -5.842679298072165E-002
          18 -1.080098565257736E-002
          19 -9.561271975547013E-002
          20  2.090783669100647E-002
          21 -1.884091731691218E-002
          22 -3.358216939949297E-003
          23 -3.802105182438714E-003
          24 -5.320314559305595E-002
          25  6.408871973973213E-002
          26  1.007327471567469E-002
          27  0.161117867669276     
          28 -7.517336904756116E-004
          29  2.679299593160012E-002
          30  2.903643377941030E-003
          31  7.780767033093237E-002
          32 -8.019183884750489E-002
          33 -9.229751138675106E-003
          34  3.821401671073695E-003
          35 -9.254395431890003E-002
          36 -1.785203113230435E-002
          37  3.036748265288716E-002
          38  4.277185724986657E-003
          39 -2.466960927285518E-002
          40 -8.833287408692610E-004
          41  6.123297361038540E-002
          42  2.941269930874435E-002
          43 -3.476758810327391E-002
Sym=     6a
Ene=  -0.601947007281234     
Spin= Alpha
Occup=     2.00000000
           1 -9.097921241381712E-002
           2 -2.272841653151104E-002
           3 -1.137354402706756E-003
           4  8.727294449417577E-004
           5 -5.761539588382999E-003
           6 -4.299006272809194E-002
           7  3.497604221170312E-002
           8  5.619497229289925E-003
           9  4.595941073555399E-003
          10 -1.085842143912021E-002
          11  6.262480365564814E-003
          12 -5.762898800439496E-003
          13 -6.133211587780474E-004
          14 -2.051227421324830E-003
          15  6.636124910501429E-002
          16  0.104452167048378     
          17  0.246157940480094     
          18  2.002918088118832E-002
          19 -0.249173905621370     
          20 -0.123059456323607     
          21  7.018925127184712E-002
          22  1.494926074165788E-002
          23  0.252746258223564     
          24 -0.138812231616025     
          25  6.718964328588491E-002
          26  1.560310177153263E-002
          27  3.291387002242131E-002
          28 -9.949140523219688E-002
          29 -0.236582020103338     
          30 -1.936467869036215E-002
          31 -0.304860856026719     
          32  8.725322177163533E-002
          33 -6.215869709005186E-002
          34 -1.191266249708975E-002
          35  0.189050731514543     
          36  0.155632019125997     
          37 -0.114423142294480     
          38 -2.179248332177171E-002
          39 -0.147664833177301     
          40  0.130120955117860     
          41  1.776380500092840E-002
          42 -0.154141931761782     
          43  9.193769364803063E-002
Sym=     7a
Ene=  -0.595959161464068     
Spin= Alpha
Occup=     2.00000000
           1 -0.191106693132797     
           2  9.860423573443250E-003
           3 -4.384743239722322E-002
           4 -5.874774879276492E-003
           5  0.151884782225136     
           6  0.126381069789200     
           7 -0.117624212641628     
           8 -2.120831338106939E-002
           9 -2.523152536861150E-003
          10 -1.150051422373677E-002
          11  1.402366676059792E-002
          12 -1.702512317475811E-002
          13 -1.027629413499226E-003
          14 -2.720456248309442E-003
          15 -0.282391722721163     
          16 -1.681633453884098E-002
          17  7.148102502472384E-002
          18  8.606967047736565E-003
          19  8.791514175276331E-002
          20 -0.242891661583029     
          21 -9.637207554480610E-002
          22  4.324704214377403E-003
          23  0.187356691320432     
          24  7.114971522638054E-002
          25 -0.198281952835253     
          26 -2.556950889591175E-002
          27 -0.278867688758884     
          28  6.555539839120758E-002
          29 -5.704080687474233E-002
          30 -1.006976494476582E-002
          31  0.127679447855538     
          32  0.228576190049452     
          33  7.687193256772876E-002
          34 -5.565507904489178E-003
          35  0.195573088838793     
          36 -8.368038070569650E-002
          37  0.191688354630670     
          38  2.553089638393501E-002
          39  6.441368842545388E-002
          40  0.112549017643498     
          41 -0.151159253884603     
          42  6.896891514502906E-002
          43  9.277833049719554E-002
Sym=     8a
Ene=  -0.559364460174089     
Spin= Alpha
Occup=     2.00000000
           1 -8.261037035219200E-002
           2  6.110305970113686E-002
           3 -8.622506936273870E-002
           4 -1.341267234122430E-002
           5  0.114074965202189     
           6  0.257769017873452     
           7 -0.130384438584363     
           8 -2.940995120874464E-002
           9 -6.092987162424744E-003
          10 -6.796807866965369E-003
          11  1.288979502939011E-002
          12 -7.043401290091182E-003
          13  3.874310923555705E-004
          14 -2.339483688138679E-003
          15 -8.153329018512032E-002
          16 -0.222411237160695     
          17  5.310361248718065E-002
          18  1.886517159705342E-002
          19 -7.187440667329427E-002
          20 -4.395980941966845E-002
          21  0.238237995410224     
          22  2.803460849249421E-002
          23 -5.463629104507015E-002
          24  0.173101316557042     
          25  0.133226199537310     
          26  3.687790685419520E-003
          27 -8.068997705911196E-002
          28  0.195645595118394     
          29 -7.869731079472223E-002
          30 -2.033136747271745E-002
          31 -6.536881454207674E-002
          32  3.908570202483672E-002
          33 -0.185544569360455     
          34 -2.231409869722045E-002
          35 -9.202148166504884E-002
          36 -0.169733139480855     
          37 -0.112198660522259     
          38 -1.900678968109001E-003
          39 -0.203892316284697     
          40 -0.173851697178455     
          41 -0.178752706833528     
          42 -0.156485096733259     
          43 -0.168591893973614     
Sym=     9a
Ene=  -0.526204712255944     
Spin= Alpha
Occup=     2.00000000
           1 -0.118465632599290     
           2 -9.269394574252163E-002
           3 -8.519369758503387E-002
           4 -6.255716444922613E-003
           5 -8.365995432725919E-003
           6 -2.109803486923518E-002
           7  0.161545623066932     
           8  1.771408019134812E-002
           9 -6.006428284696857E-006
          10 -1.384324905590028E-002
          11  1.384925548418498E-002
          12 -1.620264894439248E-002
          13 -1.078784798506429E-003
          14 -3.024188104118788E-003
          15  4.808747976288032E-003
          16  0.135138740656842     
          17  0.280324052405423     
          18  2.174737862148445E-002
          19  1.634680207329650E-002
          20 -0.315105714754689     
          21 -6.284465434054493E-002
          22  1.216476484597958E-002
          23 -4.807939025729631E-003
          24  0.221132166292844     
          25 -0.227388216645349     
          26 -3.790854991931014E-002
          27 -6.633550269454002E-003
          28  0.144813823456682     
          29  0.285152465597315     
          30  2.169409252248067E-002
          31  2.275290810657368E-002
          32 -0.317843875981511     
          33 -5.721358437350821E-002
          34  1.285843250862606E-002
          35 -6.124000263046695E-002
          36  0.161962276150121     
          37 -0.251837519016667     
          38 -3.698939557094485E-002
          39  1.033258681535620E-002
          40 -2.153089686861539E-002
          41 -3.171300982896795E-002
          42  8.291398461837653E-003
          43 -4.653152741871799E-002
Sym=    10a
Ene=  -0.522834368600212     
Spin= Alpha
Occup=     2.00000000
           1  9.457959360683819E-002
           2 -6.387855896448154E-002
           3  0.137046784028804     
           4  2.083801225884691E-002
           5 -5.427845723266124E-002
           6 -0.360202458622586     
           7  0.116251085547276     
           8  3.498772534468775E-002
           9 -5.494063698480004E-003
          10  9.600070331322071E-003
          11 -4.106006632842066E-003
          12  9.140626604891464E-003
          13  1.251424173533834E-003
          14  1.672443474069252E-003
          15  0.147915839978877     
          16  0.148215833485306     
          17 -0.127321664753115     
          18 -2.073553622212896E-002
          19 -0.159023017070038     
          20 -3.192064044913497E-002
          21  0.214274699733302     
          22  2.622206111392711E-002
          23  0.184053943370403     
          24 -5.311796925320391E-002
          25 -4.426033607667795E-002
          26 -5.458081290807880E-004
          27 -0.174348221226256     
          28  0.181174920294809     
          29 -8.462430201185066E-002
          30 -1.921517583041046E-002
          31  0.175580027580629     
          32 -1.965686968804089E-002
          33  0.161206924789938     
          34  1.932443984637016E-002
          35 -0.202311649667934     
          36 -9.539509917451454E-002
          37 -1.388898318137170E-002
          38  5.588470703897079E-003
          39 -0.262506520864332     
          40  0.147734917777394     
          41 -0.245029930210068     
          42  0.214584385343759     
          43 -0.148316382803502     
Sym=    11a
Ene=  -0.515164787176626     
Spin= Alpha
Occup=     2.00000000
           1 -2.640530690453965E-003
           2  4.060360479294036E-003
           3 -1.698491593276989E-002
           4  0.122501378015979     
           5 -2.575476610943327E-004
           6  1.569548496349051E-002
           7 -3.177567869642119E-002
           8  0.294838843436573     
           9 -8.401638564655593E-004
          10 -1.780001662538567E-003
          11  2.620165519004126E-003
          12  8.474100637324785E-004
          13 -6.824159541840263E-003
          14  7.649585987596310E-003
          15 -1.600632606144206E-003
          16  2.607784649612215E-002
          17 -4.466615550445856E-002
          18  0.417791587252179     
          19  3.489556794721521E-004
          20  2.044396361430399E-002
          21 -3.900439272325983E-002
          22  0.338554418282385     
          23 -9.506608380657848E-004
          24  1.699254667863298E-002
          25 -2.825845849528547E-002
          26  0.272979285662818     
          27  1.126728086467010E-003
          28  1.597948095896149E-002
          29 -2.648405565877518E-002
          30  0.244231262278348     
          31 -5.673435296797958E-004
          32  1.615688597174154E-002
          33 -3.082149191404961E-002
          34  0.257795408138930     
          35  1.070508203183828E-003
          36  1.869880221068836E-002
          37 -3.349925743270444E-002
          38  0.317158694576444     
          39  2.543054570498050E-003
          40 -1.198060328501235E-003
          41 -4.258870428904138E-004
          42 -2.922844881770623E-003
          43  4.849970969224959E-004
Sym=    12a
Ene=  -0.512201403277248     
Spin= Alpha
Occup=     2.00000000
           1  7.228300056937779E-002
           2 -8.986082854998308E-002
           3  0.174760263243206     
           4  2.470349827214660E-002
           5 -2.188865698744388E-002
           6 -0.334405384294850     
           7  5.617157411061162E-002
           8  2.261627073880401E-002
           9 -2.750809207605474E-002
          10  2.605537837342215E-002
          11  1.452713702632587E-003
          12  1.854759254544314E-002
          13  4.019057518160108E-003
          14  2.251127854967539E-003
          15 -0.137734713282872     
          16  0.242308096239315     
          17 -8.124483671352266E-002
          18 -2.568358807898685E-002
          19  1.009925418701022E-002
          20 -3.860730215226377E-002
          21 -0.205723200790681     
          22 -2.180167579487070E-002
          23 -1.750382673217456E-002
          24  0.121752790347275     
          25  0.190198670966661     
          26  1.117238851923815E-002
          27  9.423767452870203E-002
          28  0.272974979213541     
          29 -0.118156639153770     
          30 -3.079757689474263E-002
          31 -1.083202122622574E-002
          32  2.812558334332551E-002
          33 -0.268347651446912     
          34 -3.205199142676430E-002
          35  2.817590575684182E-002
          36  2.450237304717346E-002
          37  0.149484637982411     
          38  1.279292202856592E-002
          39  0.178888765118536     
          40 -0.190189956467969     
          41 -0.199543894872515     
          42 -0.228604666467638     
          43  0.111015762381948     
Sym=    13a
Ene=  -0.505237745821517     
Spin= Alpha
Occup=     2.00000000
           1 -8.112307836364846E-002
           2 -0.102238226583987     
           3 -5.715535137723047E-002
           4 -2.547223127457227E-003
           5 -1.019991932135165E-004
           6  2.209182834671355E-002
           7  8.820554236898233E-002
           8  8.195269193370037E-003
           9 -8.455626139367149E-003
          10 -1.077164483572196E-003
          11  9.532790622939345E-003
          12 -1.830050832634872E-002
          13 -1.069101371794900E-003
          14 -6.457684247919128E-004
          15 -5.353395966949033E-002
          16 -2.117325323848433E-002
          17 -9.149330205550084E-002
          18 -7.544867157692082E-003
          19  9.765729507815273E-002
          20 -0.102318545046353     
          21  0.244390064209879     
          22  3.306976697807800E-002
          23  2.447964940326453E-002
          24  0.298638376697758     
          25  0.181373811166793     
          26  1.801120882509385E-003
          27  4.088962217937001E-002
          28 -6.146073450808186E-002
          29 -7.042944160017345E-002
          30 -3.329613730355649E-003
          31 -8.336013137027856E-002
          32 -6.056557856400843E-002
          33  0.246723674527917     
          34  3.081501298505606E-002
          35 -7.566081474889469E-004
          36  0.284602357013596     
          37  0.222393488417052     
          38  7.613924590452344E-003
          39 -0.181694908737407     
          40 -0.288646090873743     
          41  5.041142836803862E-002
          42  0.173230157285143     
          43  0.286501744500872     
Sym=    14a
Ene=  -0.492420780186197     
Spin= Alpha
Occup=     2.00000000
           1 -0.335633401726919     
           2 -0.339904325530609     
           3 -0.511198512285927     
           4 -4.203193532589460E-002
           5 -8.550287737321885E-002
           6  0.107913868400200     
           7  0.549277884029121     
           8  6.223970516929216E-002
           9  1.636982778217787E-002
          10 -4.911155053473080E-002
          11  3.274172275255292E-002
          12 -3.755564517467284E-002
          13 -3.463231902245289E-003
          14 -9.378772633549606E-003
          15  9.874040275426045E-003
          16  1.535281900203397E-002
          17 -7.513680313257545E-002
          18 -1.006272093350704E-002
          19  9.584768482066575E-003
          20  0.119291298987866     
          21 -6.779552618508454E-002
          22 -1.732026906486947E-002
          23 -4.470373665806652E-003
          24 -9.966339882606391E-002
          25  7.690194336345021E-002
          26  1.053115364353778E-002
          27 -2.943927392176995E-003
          28  3.370323580956943E-002
          29 -0.100299518495049     
          30 -1.670311000544468E-002
          31  3.826045531580051E-002
          32  7.856546599295521E-002
          33 -1.747941316645214E-002
          34 -1.008227960265631E-002
          35 -4.586466856731652E-002
          36 -9.789803336172617E-002
          37  3.800625957671853E-002
          38  7.608358623973630E-003
          39  7.793804415093097E-002
          40  2.338790965710390E-002
          41 -6.344470268060223E-002
          42 -7.293286444397905E-003
          43 -6.580797519823968E-002
Sym=    15a
Ene=  -0.483470837808999     
Spin= Alpha
Occup=     2.00000000
           1 -1.562618309163470E-003
           2 -2.564078927189008E-002
           3  5.207343932158030E-002
           4 -0.456548329191856     
           5 -5.709909152050933E-004
           6 -3.623141780102500E-002
           7  8.581785435639927E-002
           8 -0.692611550695837     
           9 -2.182577998241890E-003
          10  6.137996787029433E-003