12
 energy: -41.029834929144 gnorm: 0.000049861953 xtb: 6.7.1 (edcfbbe)
O            2.27202452293521        1.32402885967673        0.07327673663695
C            1.24395914412728        0.72492079074920        0.04012006183447
N            1.15557879625180       -0.65965008645869       -0.02260536370869
Cl           2.65289415495402       -1.51437695105958       -0.05189706626682
C            0.00673534436242       -1.43886662389687       -0.06458733626947
O            0.01230177784098       -2.62801253816563       -0.11796585975629
N           -1.14935564084382       -0.66979033975495       -0.03706844271609
Cl          -2.63860758682953       -1.53765626977090       -0.08510017234887
C           -1.25069449405896        0.71394589370822        0.02446667299275
O           -2.28432627463649        1.30398382109990        0.04468675942754
N           -0.00622313267158        1.32944040129276        0.05967563221413
Cl          -0.01428661143140        3.05203304257987        0.13699837796036
