1
 energy: -3.386121480053 gnorm: 0.000000000000 xtb: 6.7.1 (edcfbbe)
Ag           0.00000000000000        0.00000000000000        0.00000000000000
