12
 energy: -20.397755227036 gnorm: 0.000593837792 xtb: 6.7.1 (edcfbbe)
F            2.58251091174390       -0.51380677312927        0.01492056594971
N            1.25545268539816       -0.24978019939425        0.00725344243314
C            0.42249680948064       -1.28518661499942        0.03900502372922
C           -0.93659599116113       -1.03794470577840        0.03185808375652
C           -1.39030172962448        0.27660928825838       -0.00803177200377
C           -0.46758713041345        1.31731578464706       -0.03996999396779
C            0.88263407143781        1.02552263401936       -0.03146435457037
H            0.85353308868072       -2.27683647452876        0.06907158135702
H           -1.62648559152464       -1.86781582057915        0.05731183281381
H           -2.44938192127062        0.48731990591466       -0.01415196800296
H           -0.78698167716513        2.34799026759434       -0.07125673991903
H            1.66070647441820        1.77661270797542       -0.05454570157554
