[Molden Format]
[Title]
[Atoms] AU
O      1     8  0.36611893114578E+01  0.15624624286390E+01  0.21074441041527E+01
S      2    16  0.35479782710714E+01 -0.14004900799930E+00 -0.36383972440538E-01
O      3     8  0.50765054998303E+01  0.72307748811063E+00 -0.21666583725533E+01
O      4     8  0.40649285725135E+01 -0.27594743185692E+01  0.61543432462827E+00
O      5     8  0.64633635983448E+00 -0.38895776206196E-01 -0.12596280962014E+01
O      6     8 -0.69890809413873E+00 -0.87962608275822E+00  0.86238725343765E+00
S      7    16 -0.35434309696071E+01  0.21949863893903E+00  0.70744225821351E-01
O      8     8 -0.34031275606281E+01  0.29463252137158E+01 -0.15749362935665E+00
O      9     8 -0.42823328714870E+01 -0.10389480773361E+01 -0.22581674485793E+01
O     10     8 -0.50691385188464E+01 -0.59437050653537E+00  0.22223216110912E+01
[GTO]
           1 0
 s           4   1.00000000000000     
   69.1379619061966      -0.204787563700778     
   11.9061291327073      -0.249970231368273     
  0.956708277443407       0.400258802406396     
  0.364625204960737       0.159522066676936     
 p           4   1.00000000000000     
   8.21241932577816        1.13215567991868     
   2.12935769970981        1.04768407822548     
  0.750664482023609       0.549565082171590     
  0.298852465432831       8.290848659276662E-002
 
           2 0
 s           4   1.00000000000000     
   5.94059715667128      -8.937241731159805E-002
   1.67332031646937      -0.180826416098390     
  0.300052353376111       0.217239963388792     
  0.147626982610695       6.093036238655329E-002
 p           4   1.00000000000000     
   7.60402394306428      -0.258148203245547     
  0.785799530644415       0.290555694475872     
  0.355154539932778       0.228494836712103     
  0.171689541475341       3.379048730081900E-002
 d           3   1.00000000000000     
   1.51575937639239       0.574808919567051     
  0.475268595433768       0.261853961962925     
  0.185128831077629       3.488754942672512E-002
 
           3 0
 s           4   1.00000000000000     
   69.1379619061966      -0.204787563700778     
   11.9061291327073      -0.249970231368273     
  0.956708277443407       0.400258802406396     
  0.364625204960737       0.159522066676936     
 p           4   1.00000000000000     
   8.21241932577816        1.13215567991868     
   2.12935769970981        1.04768407822548     
  0.750664482023609       0.549565082171590     
  0.298852465432831       8.290848659276662E-002
 
           4 0
 s           4   1.00000000000000     
   69.1379619061966      -0.204787563700778     
   11.9061291327073      -0.249970231368273     
  0.956708277443407       0.400258802406396     
  0.364625204960737       0.159522066676936     
 p           4   1.00000000000000     
   8.21241932577816        1.13215567991868     
   2.12935769970981        1.04768407822548     
  0.750664482023609       0.549565082171590     
  0.298852465432831       8.290848659276662E-002
 
           5 0
 s           4   1.00000000000000     
   69.1379619061966      -0.204787563700778     
   11.9061291327073      -0.249970231368273     
  0.956708277443407       0.400258802406396     
  0.364625204960737       0.159522066676936     
 p           4   1.00000000000000     
   8.21241932577816        1.13215567991868     
   2.12935769970981        1.04768407822548     
  0.750664482023609       0.549565082171590     
  0.298852465432831       8.290848659276662E-002
 
           6 0
 s           4   1.00000000000000     
   69.1379619061966      -0.204787563700778     
   11.9061291327073      -0.249970231368273     
  0.956708277443407       0.400258802406396     
  0.364625204960737       0.159522066676936     
 p           4   1.00000000000000     
   8.21241932577816        1.13215567991868     
   2.12935769970981        1.04768407822548     
  0.750664482023609       0.549565082171590     
  0.298852465432831       8.290848659276662E-002
 
           7 0
 s           4   1.00000000000000     
   5.94059715667128      -8.937241731159805E-002
   1.67332031646937      -0.180826416098390     
  0.300052353376111       0.217239963388792     
  0.147626982610695       6.093036238655329E-002
 p           4   1.00000000000000     
   7.60402394306428      -0.258148203245547     
  0.785799530644415       0.290555694475872     
  0.355154539932778       0.228494836712103     
  0.171689541475341       3.379048730081900E-002
 d           3   1.00000000000000     
   1.51575937639239       0.574808919567051     
  0.475268595433768       0.261853961962925     
  0.185128831077629       3.488754942672512E-002
 
           8 0
 s           4   1.00000000000000     
   69.1379619061966      -0.204787563700778     
   11.9061291327073      -0.249970231368273     
  0.956708277443407       0.400258802406396     
  0.364625204960737       0.159522066676936     
 p           4   1.00000000000000     
   8.21241932577816        1.13215567991868     
   2.12935769970981        1.04768407822548     
  0.750664482023609       0.549565082171590     
  0.298852465432831       8.290848659276662E-002
 
           9 0
 s           4   1.00000000000000     
   69.1379619061966      -0.204787563700778     
   11.9061291327073      -0.249970231368273     
  0.956708277443407       0.400258802406396     
  0.364625204960737       0.159522066676936     
 p           4   1.00000000000000     
   8.21241932577816        1.13215567991868     
   2.12935769970981        1.04768407822548     
  0.750664482023609       0.549565082171590     
  0.298852465432831       8.290848659276662E-002
 
          10 0
 s           4   1.00000000000000     
   69.1379619061966      -0.204787563700778     
   11.9061291327073      -0.249970231368273     
  0.956708277443407       0.400258802406396     
  0.364625204960737       0.159522066676936     
 p           4   1.00000000000000     
   8.21241932577816        1.13215567991868     
   2.12935769970981        1.04768407822548     
  0.750664482023609       0.549565082171590     
  0.298852465432831       8.290848659276662E-002
 
[MO]
Sym=     1a
Ene=  -0.468706086835916     
Spin= Alpha
Occup=     2.00000000
           1  6.293985667059533E-002
           2  1.629026213274738E-003
           3 -3.190673995170928E-002
           4 -4.037974273161865E-002
           5  0.540752712039329     
           6  3.606685624046348E-003
           7 -7.681628538862466E-004
           8 -4.978368658620065E-003
           9  1.269629842152732E-002
          10 -7.538368637818821E-003
          11 -5.157929783708497E-003
          12 -7.568886662514904E-004
          13  8.252866013013364E-003
          14 -2.282784986419953E-004
          15  6.742387186919141E-002
          16 -2.508810210469914E-002
          17 -1.618729838106945E-002
          18  3.923335151006756E-002
          19  6.492223016572982E-002
          20 -6.874707608122072E-003
          21  4.879811083343653E-002
          22 -1.284694392083141E-002
          23  0.139169899640049     
          24  0.104755962747210     
          25 -1.197874567358108E-003
          26  7.769083537555596E-003
          27 -0.139170178625942     
          28  0.103971475471376     
          29 -1.490492270639122E-002
          30  1.841156003711630E-003
          31 -0.540753439772390     
          32  3.867770407610482E-003
          33  3.793278745029887E-003
          34 -3.005652991178661E-003
          35 -1.201085466122953E-002
          36  5.376554756987281E-003
          37  6.634299904242250E-003
          38  7.599964080552002E-003
          39 -5.149696367665654E-003
          40  1.659401871870654E-003
          41 -6.293994835173121E-002
          42  6.367912418654339E-003
          43  5.088979388269237E-002
          44 -4.572120324764770E-003
          45 -6.492231963404363E-002
          46 -1.099542745040714E-002
          47 -2.319746903858549E-002
          48 -4.398347507889033E-002
          49 -6.742397421333673E-002
          50 -2.502505995235436E-002
          51 -1.508564656440043E-002
          52  3.970986148645027E-002
Sym=     2a
Ene=  -0.466293762239921     
Spin= Alpha
Occup=     2.00000000
           1  6.084455678497962E-002
           2  1.572168349260942E-003
           3 -3.022594593781589E-002
           4 -3.851286336067091E-002
           5  0.504363475901372     
           6  3.351786587563011E-003
           7 -1.046085792601991E-003
           8 -3.389730732478625E-003
           9  1.583724296672783E-002
          10 -9.827449123716549E-003
          11 -6.009793843011286E-003
          12  5.401268047756355E-004
          13  9.535040141269182E-003
          14 -7.687578135282319E-004
          15  6.503445925606294E-002
          16 -2.214059591943636E-002
          17 -1.518585988651263E-002
          18  3.717652030148869E-002
          19  6.261581114590570E-002
          20 -5.746808598483805E-003
          21  4.628266887845355E-002
          22 -1.229335477518258E-002
          23  0.226116461729849     
          24  2.051651442338639E-002
          25 -1.438799888457830E-002
          26  5.577076434158031E-002
          27  0.226116247657080     
          28 -1.946756144239549E-002
          29  3.271242452288971E-002
          30 -4.784583514606350E-002
          31  0.504362720491147     
          32 -3.574917493510480E-003
          33 -2.852425342843901E-003
          34  1.703696995405163E-003
          35  1.478418382793699E-002
          36 -7.017077552434355E-003
          37 -7.767106275502633E-003
          38 -9.989375573709150E-003
          39  4.806809555444936E-003
          40 -2.413023289756035E-003
          41  6.084447461491294E-002
          42 -6.072071382463614E-003
          43 -4.839519038238480E-002
          44  4.510936944720118E-003
          45  6.261572208699277E-002
          46  9.654802751136903E-003
          47  2.199707027592772E-002
          48  4.182277367604928E-002
          49  6.503436632174169E-002
          50  2.210449661418180E-002
          51  1.455564447646839E-002
          52 -3.744901768404477E-002
Sym=     3a
Ene=  -0.435369715012306     
Spin= Alpha
Occup=     2.00000000
           1  6.871027280403169E-002
           2  1.162809972345802E-002
           3 -1.746549141233503E-002
           4 -2.212378371971772E-002
           5  0.248987055759623     
           6  5.946659514618435E-002
           7  3.699953694377697E-003
           8  7.170294591499200E-003
           9 -1.763423678164322E-002
          10  1.143227396965595E-002
          11  6.201962811987269E-003
          12 -5.388234241706330E-004
          13 -1.111500951858351E-002
          14  7.726870741256491E-004
          15  8.250366690292750E-002
          16 -1.101832217944373E-002
          17 -1.017231160623398E-002
          18  2.657592292736401E-002
          19  6.922589516396875E-002
          20  8.229786629385425E-003
          21  2.758011491247412E-002
          22 -5.906320812821814E-003
          23 -0.520832243853967     
          24  0.134342853469679     
          25  6.801418387275282E-002
          26 -0.109516242097640     
          27 -0.520832246688459     
          28 -0.131617425512363     
          29 -2.039661310929286E-002
          30  0.130109816160151     
          31  0.248987012644847     
          32 -5.848524466311995E-002
          33  1.344601020394897E-002
          34  2.449600567612302E-004
          35 -1.643329257305621E-002
          36  7.656779820373814E-003
          37  8.776512752682396E-003
          38  1.145074732769202E-002
          39 -5.679107625378337E-003
          40  3.266950428766915E-003
          41  6.871026645919853E-002
          42 -1.416387802244243E-002
          43 -2.683881376731293E-002
          44  2.963156675307260E-003
          45  6.922589816420800E-002
          46 -5.777796146726276E-003
          47  1.526037358686693E-002
          48  2.443387947996154E-002
          49  8.250366423621813E-002
          50  1.108472778678169E-002
          51  1.133258447125852E-002
          52 -2.607413062016161E-002
Sym=     4a
Ene=  -0.404047158039235     
Spin= Alpha
Occup=     2.00000000
           1  8.707063613031196E-002
           2  7.894636985395529E-003
           3 -1.551013660318279E-002
           4 -1.041914771859509E-002
           5  0.113236181507259     
           6  5.979480132442128E-002
           7 -8.919611512408361E-003
           8  4.211328191569940E-002
           9 -1.732795941041954E-002
          10  1.388324574307602E-002
          11  3.444713667343521E-003
          12  6.389152741503611E-003
          13 -3.074416213448751E-002
          14 -1.092572469657457E-004
          15  7.258900855929994E-002
          16  1.198299937469723E-002
          17 -3.649486939500019E-003
          18  1.371374975210293E-002
          19  9.089919866869137E-002
          20  3.993031216769451E-003
          21  1.819344909765390E-002
          22  1.788840999755739E-003
          23 -0.627836694707126     
          24 -3.050239134136249E-002
          25 -6.153303879223071E-002
          26  0.179971739543822     
          27  0.627836705651381     
          28 -3.190213441240690E-002
          29 -8.598880949592524E-002
          30  0.169395147283307     
          31 -0.113236166601998     
          32  5.857194634523936E-002
          33 -3.028514249943644E-002
          34  3.287315026085512E-002
          35  1.585997449213360E-002
          36 -4.991781070400174E-003
          37 -1.086819342173343E-002
          38 -2.090340894591409E-002
          39  2.377277896426498E-002
          40 -7.580821931412102E-003
          41 -8.707066389723968E-002
          42  9.776107247941025E-003
          43  1.736245502069349E-002
          44  3.797511192040483E-003
          45 -9.089917587203060E-002
          46  2.147019015375425E-003
          47 -1.405962619209414E-002
          48 -1.215989023024005E-002
          49 -7.258901101103739E-002
          50  1.169765057128293E-002
          51 -8.635172010806283E-003
          52  1.155755859233306E-002
Sym=     5a
Ene=  -0.367902246849028     
Spin= Alpha
Occup=     2.00000000
           1  0.167674344604643     
           2 -9.477610023105426E-004
           3 -7.224302911505204E-003
           4  1.964726425481454E-002
           5  1.244080781834884E-002
           6 -2.360299576163120E-002
           7 -5.660761265837456E-002
           8  9.238862861976961E-002
           9 -1.777508058917457E-002
          10  3.387158709330418E-002
          11 -1.609650650412961E-002
          12 -1.870963194801490E-002
          13  2.911989799900910E-002
          14  1.396275925345022E-002
          15 -0.498218236929237     
          16 -2.835327102546839E-002
          17 -1.968970514673529E-002
          18  4.125240241787995E-002
          19  0.342681365344996     
          20  3.445098582075895E-003
          21 -2.443640083846100E-002
          22  1.861170558852834E-002
          23 -3.936293219689018E-002
          24 -3.070126088928489E-002
          25 -1.965574218975281E-002
          26  3.672685156005463E-002
          27 -3.936269315628842E-002
          28  3.016926356932490E-002
          29  1.036515687508736E-002
          30 -4.074505401975201E-002
          31  1.244091395578115E-002
          32  2.187223445285105E-002
          33  2.635953254599504E-002
          34 -0.105471805451030     
          35 -1.618485227479409E-002
          36  2.036809803017764E-002
          37 -4.183245755383546E-003
          38 -3.113131329222706E-003
          39  3.696890264263083E-002
          40  2.649548005397851E-002
          41  0.167676362244496     
          42  1.064994107442969E-003
          43  9.271713006131554E-003
          44 -1.876210552513823E-002
          45  0.342685898087801     
          46 -5.002093218778508E-003
          47 -2.766705993502104E-003
          48 -3.037684303499094E-002
          49 -0.498225770587284     
          50  2.801989377071527E-002
          51  1.385651090609504E-002
          52 -4.377583005868711E-002
Sym=     6a
Ene=  -0.367569352313803     
Spin= Alpha
Occup=     2.00000000
           1 -0.129728826966478     
           2  4.627537956650997E-003
           3  7.727777684728617E-003
           4 -1.759997539473150E-002
           5 -7.288028248947798E-003
           6  3.903275258466042E-002
           7  5.764903355425763E-002
           8 -8.245731676028878E-002
           9  1.363562553808333E-002
          10 -3.136678259756941E-002
          11  1.773115705948608E-002
          12  1.923074313453791E-002
          13 -3.290022592886317E-002
          14 -1.313158902453643E-002
          15  0.527490701721124     
          16  3.596303296779946E-002
          17  2.110328900427839E-002
          18 -4.177670807584952E-002
          19 -0.323926999474642     
          20 -1.803090902247334E-004
          21  2.460448976144151E-002
          22 -1.681803711025115E-002
          23 -1.674580696860862E-002
          24 -1.708088534344808E-002
          25  1.040700005143853E-002
          26 -1.151486414147073E-002
          27  1.674637924379044E-002
          28 -1.750923980565835E-002
          29  2.930724644181411E-003
          30 -1.474752781363445E-002
          31  7.287856023991199E-003
          32  3.670301493340877E-002
          33  1.694988084441248E-002
          34 -0.100057125373750     
          35 -1.230668161382467E-002
          36  1.807057645309905E-002
          37 -5.763894839274385E-003
          38 -6.267062061351442E-003
          39  3.961059114583676E-002
          40  2.578736396208320E-002
          41  0.129726340473600     
          42  4.590879332527270E-003
          43  7.087389184173796E-003
          44 -1.787660327691894E-002
          45  0.323922146858435     
          46 -1.845957408708566E-003
          47 -4.498312027939527E-003
          48 -2.940393569729262E-002
          49 -0.527483606419953     
          50  3.547273035598231E-002
          51  1.254375316281876E-002
          52 -4.547783896353915E-002
Sym=     7a
Ene=  -0.365930536439552     
Spin= Alpha
Occup=     2.00000000
           1  0.477193633875368     
           2  5.147427580232637E-003
           3  2.895705929133948E-002
           4  2.361872444071159E-002
           5  7.215206930595314E-003
           6 -1.689300015922575E-002
           7  9.774172212564962E-002
           8  5.619848922869724E-002
           9 -4.417167782621688E-003
          10 -1.695878923978811E-002
          11  2.137595702240979E-002
          12  1.049942334172100E-002
          13  6.977579294926045E-003
          14  3.903536737558505E-002
          15 -0.108498538021084     
          16 -9.112980999313465E-003
          17  1.486858770894877E-002
          18  1.650753568441556E-002
          19 -0.393860755431675     
          20 -1.189612607871575E-002
          21  3.866887663825526E-002
          22  6.521184793767248E-003
          23 -8.491939502473568E-003
          24 -4.607960854339015E-003
          25  4.044204321501243E-002
          26  2.518318785993275E-002
          27 -8.491881538409230E-003
          28  9.519242863239090E-003
          29  4.536656556088933E-002
          30  1.192716134399595E-002
          31  7.215296955505643E-003
          32  2.853739568020702E-002
          33  0.105700938783284     
          34  3.178573158391125E-002
          35 -6.457331842935928E-003
          36  3.885419921467748E-002
          37 -3.239686737174156E-002
          38 -8.235270340605876E-003
          39 -6.031040089724007E-003
          40 -1.881420362386324E-002
          41  0.477199664825755     
          42 -1.352070609075960E-003
          43  3.735582479157971E-002
          44  5.059969923646406E-003
          45 -0.393865571017108     
          46  1.582079066097812E-002
          47  2.989878830185003E-002
          48  2.313294234118007E-002
          49 -0.108500136241658     
          50  1.117941820478233E-002
          51  2.123335608386465E-002
          52 -8.944071516423646E-004
Sym=     8a
Ene=  -0.365555680742560     
Spin= Alpha
Occup=     2.00000000
           1 -0.483321730361846     
           2 -7.016949782415493E-003
           3 -2.980613637587782E-002
           4 -2.555269838665335E-002
           5 -7.957170942929526E-003
           6  1.677761933766487E-002
           7 -9.442788174992033E-002
           8 -5.644478525891835E-002
           9  4.680711629628920E-003
          10  1.658030799609930E-002
          11 -2.126101962572822E-002
          12 -1.137703109980765E-002
          13 -8.738056866791270E-003
          14 -3.989308540419755E-002
          15  0.120579108638621     
          16  1.035906206988444E-002
          17 -1.366999402517650E-002
          18 -1.764031290196356E-002
          19  0.388834732775058     
          20  1.290931396737063E-002
          21 -3.912244219875329E-002
          22 -5.998477938013893E-003
          23 -4.800814422468251E-004
          24  1.647170037275264E-003
          25 -1.076791516417912E-002
          26 -5.608450534119452E-003
          27  4.801624841389285E-004
          28  2.906805716492914E-003
          29  1.124113721639288E-002
          30  3.910070033021350E-003
          31  7.957078127313465E-003
          32  2.811347486697652E-002
          33  0.103634221569141     
          34  2.921287249977136E-002
          35 -6.980067899773546E-003
          36  4.001206697784803E-002
          37 -3.303199907807448E-002
          38 -9.947911989306401E-003
          39 -5.441731307952719E-003
          40 -1.845672345242452E-002
          41  0.483315740661009     
          42 -3.049136946894391E-003
          43  3.951755598979940E-002
          44  4.428407964592421E-003
          45 -0.388829910807227     
          46  1.684990538396314E-002
          47  2.972929710713243E-002
          48  2.377825245675975E-002
          49 -0.120577590846098     
          50  1.235020402043460E-002
          51  2.112081130748502E-002
          52 -2.593916330835210E-003
Sym=     9a
Ene=  -0.337783852281911     
Spin= Alpha
Occup=     2.00000000
           1 -0.346776954354304     
           2 -3.627732641746562E-002
           3 -6.446609469247612E-002
           4 -8.142861498613750E-002
           5  0.146440249956141     
           6 -9.140801120792842E-002
           7 -5.783937623987942E-003
           8 -2.500250694490712E-002
           9  3.211654181258911E-002
          10 -1.985438762578429E-002
          11 -1.226215418680482E-002
          12  6.346761771278127E-003
          13  3.754135189064259E-003
          14 -2.810125538326682E-003
          15 -0.282397842519376     
          16 -7.048090564519034E-002
          17 -2.786206311983863E-002
          18  5.977601377709810E-002
          19 -0.348330012365078     
          20 -5.540359053672765E-002
          21  0.100537462832063     
          22 -2.909689658992494E-002
          23 -0.143215966805672     
          24  0.227560374309892     
          25 -6.617996917532701E-002
          26  0.163902698758276     
          27  0.143215981942887     
          28  0.225855464369749     
          29 -9.596851282234542E-002
          30  0.151019756281395     
          31 -0.146440316998143     
          32 -8.930879273340298E-002
          33  3.089335771173003E-002
          34 -9.140374998461286E-003
          35 -3.021936767007059E-002
          36  1.659712007310526E-002
          37  1.362224759696532E-002
          38  1.268306763731847E-002
          39  4.626314753513646E-003
          40  3.812503453067610E-003
          41  0.346777047201594     
          42 -2.649140074580938E-002
          43  0.106511718961694     
          44 -7.484515537630438E-003
          45  0.348330046078008     
          46 -6.355705228669452E-002
          47 -4.191693025859552E-002
          48 -9.070526810244427E-002
          49  0.282397954954396     
          50 -6.989959797085878E-002
          51 -1.770631016793101E-002
          52  6.416819782139563E-002
Sym=    10a
Ene=  -0.331991137498132     
Spin= Alpha
Occup=     2.00000000
           1  0.326002172309166     
           2  1.358839971666276E-002
           3  6.213804668058521E-002
           4  9.304735170364513E-002
           5 -0.193023000138803     
           6  4.621927263367233E-002
           7 -1.109031367922837E-002
           8  4.589814789416463E-002
           9 -2.580058662061075E-002
          10  1.619899485002514E-002
          11  9.601591770585616E-003
          12  9.094524342528162E-003
          13 -3.348063721580568E-002
          14  1.541958411598708E-003
          15  0.368148880794069     
          16  0.108345722965424     
          17  4.378060211028385E-002
          18 -0.101383828046846     
          19  0.297667430456312     
          20  2.222075431957219E-002
          21 -0.100092925974582     
          22  3.334502152006994E-002
          23 -2.442489190005365E-002
          24 -0.220468757215515     
          25 -0.119606048583950     
          26  0.160466602356366     
          27 -2.442490587682470E-002
          28  0.214426781522784     
          29  1.404345446778073E-002
          30 -0.206120191922076     
          31 -0.193022984311868     
          32 -4.512243394455175E-002
          33  3.025334018515927E-002
          34 -3.761055498897004E-002
          35 -2.444818392931586E-002
          36  1.062501424412870E-002
          37  1.382316968518716E-002
          38  2.255243999204462E-002
          39 -2.725815564364296E-002
          40  5.785910926221479E-003
          41  0.326002068867275     
          42 -3.667936377978752E-003
          43  0.111188886988884     
          44 -1.808729226789766E-002
          45  0.297667427304668     
          46 -3.033736234806247E-002
          47 -4.171875572570233E-002
          48 -9.467543574740188E-002
          49  0.368148797189039     
          50 -0.107755694555014     
          51 -3.347146294306510E-002
          52  0.105842332902636     
Sym=    11a
Ene=  -0.307052958406696     
Spin= Alpha
Occup=     2.00000000
           1 -0.211791861222008     
           2 -1.120005692360329E-002
           3 -9.045148943311743E-002
           4 -9.263432618534595E-002
           5  0.133399006115800     
           6  2.544161976919801E-002
           7 -1.018079160234354E-002
           8  6.336567962535809E-002
           9  7.176583973162030E-003
          10  2.576663202948604E-003
          11 -9.753247176110634E-003
          12  4.077241187309497E-003
          13 -2.811554381768777E-002
          14 -2.887112889929817E-003
          15 -8.817157129175278E-002
          16  1.450032696102511E-002
          17 -1.538566558973349E-002
          18  6.087114313548432E-002
          19 -0.185558442151930     
          20 -1.930540698272459E-002
          21  0.114133238900608     
          22 -9.333791829008819E-003
          23 -0.285648137034057     
          24 -0.207998469694477     
          25 -8.911431750157162E-002
          26  0.461852548376275     
          27 -0.285648138842728     
          28  0.217492468735984     
          29  0.254990052884771     
          30 -0.390114843213289     
          31  0.133399028212080     
          32 -2.364526495679674E-002
          33  4.156691530657956E-002
          34 -4.979186825393647E-002
          35  8.423568303298394E-003
          36 -9.304394531371642E-003
          37  8.808262280732474E-004
          38  1.626340590975836E-002
          39 -2.186296356978200E-002
          40  8.342567100423814E-003
          41 -0.211791924558693     
          42 -1.412908393920904E-003
          43 -0.129918893085748     
          44 -2.670916923469077E-003
          45 -0.185558408482982     
          46  2.978689456385148E-002
          47  6.899784360693158E-002
          48  8.853387447135336E-002
          49 -8.817159767591683E-002
          50 -1.336837784953034E-002
          51  3.516147036180716E-002
          52 -5.231854765588457E-002
Sym=    12a
Ene=  -0.286093559418525     
Spin= Alpha
Occup=     2.00000000
           1  1.253368962960249E-002
           2  6.512367960389732E-002
           3 -5.367442539644786E-003
           4  3.628973222563889E-002
           5  5.249893297944674E-002
           6  6.087686596449694E-002
           7 -8.593238719717909E-002
           8 -1.353953136216742E-002
           9 -4.499970813988207E-003
          10 -6.259789066857003E-003
          11  1.075975988084521E-002
          12  3.858742469672935E-002
          13  1.254688476556308E-002
          14  2.198733970140315E-002
          15 -5.022205317555147E-002
          16 -1.081504028372934E-003
          17 -5.328999002185949E-002
          18  3.720640376315906E-002
          19 -0.119324826365522     
          20 -3.575664837080773E-002
          21  0.106302570234907     
          22 -4.958927276842254E-002
          23 -2.840710155392525E-002
          24 -4.024999243752425E-002
          25 -0.564463644391238     
          26 -0.207302763330854     
          27 -2.840708305479061E-002
          28 -2.287658057646836E-002
          29 -0.538475102815536     
          30 -0.269694112162541     
          31  5.249910153713654E-002
          32 -6.936907334255910E-002
          33 -6.243795776111211E-002
          34 -5.062748641034918E-002
          35 -1.162844878143591E-002
          36  2.745868475675587E-002
          37 -1.583023597531996E-002
          38 -3.220579718385026E-002
          39 -2.058319941830346E-002
          40 -5.090617150817312E-003
          41  1.253349289024565E-002
          42 -6.377216234030404E-002
          43  2.898194710478655E-002
          44 -2.607691464969066E-002
          45 -0.119325016314079     
          46  4.372027553292620E-002
          47  3.283709739206339E-002
          48  0.109764165143432     
          49 -5.022216003579993E-002