25
 energy: -36.212534681575 gnorm: 0.000680955946 xtb: 6.7.1 (edcfbbe)
F           -2.96025076622435        0.27563956824833        0.42220263936132
N           -1.60646843143586        0.14555603904250        0.22282910774008
C           -1.02433972126205        1.48940953953964        0.08382854014554
C            0.48847277577005        1.33648054228895       -0.15773888330357
N            0.86775747929344       -0.10000038506162       -0.15374865352302
C            2.34538493835098       -0.24378459993054       -0.37416425727718
Cl           3.28143049835936        0.58313217774174        0.91988249762467
C            0.48480894305503       -0.70380028962499        1.14860490749524
C           -1.02795454871009       -0.54434727298776        1.38622668912636
C            0.12279150702570       -0.79156832594149       -1.23594927230583
C           -1.39524855578613       -0.64047659260051       -1.00401391767217
H           -1.51909339904623        2.00550964613305       -0.74542027819134
H           -1.23680968476983        2.06151034647526        0.99259449924742
H            1.07069389553593        1.84131705912961        0.61752037248691
H            0.77325448578764        1.77524914053885       -1.11698649309456
H            2.61556402408049        0.20587335201300       -1.33158331150989
H            2.61285985124432       -1.30219338059000       -0.36594326010704
H            0.76677293304803       -1.75938747291370        1.14607413661695
H            1.06711299774922       -0.21254429144591        1.93248033997032
H           -1.24027235432358        0.04235459608128        2.28567062890793
H           -1.52544619212854       -1.51213910467470        1.50737567685655
H            0.40440072412700       -1.84754699451633       -1.25143050801301
H            0.40695755643572       -0.36433140445841       -2.20101510314609
H           -1.88493307724033       -0.12826599486929       -1.83862995006228
H           -1.88744587893588       -1.61164589761693       -0.88866614737323
