[Molden Format]
[Title]
[Atoms] AU
F      1     9  0.48802383370398E+01 -0.97095408218931E+00  0.28195783269289E-01
N      2     7  0.23724617378218E+01 -0.47201616820822E+00  0.13707019659335E-01
C      3     6  0.79840325844435E+00 -0.24286507213769E+01  0.73708812332547E-01
C      4     6 -0.17699099127120E+01 -0.19614312264209E+01  0.60203053155042E-01
C      5     6 -0.26272894995764E+01  0.52271579833453E+00 -0.15177849382519E-01
C      6     6 -0.88361161587860E+00  0.24893660526224E+01 -0.75532341801854E-01
C      7     6  0.16679366632761E+01  0.19379569128960E+01 -0.59459012825949E-01
H      8     1  0.16129437759079E+01 -0.43025973674057E+01  0.13052637175921E+00
H      9     1 -0.30736123136228E+01 -0.35296603521278E+01  0.10830366771814E+00
H     10     1 -0.46286610057981E+01  0.92090115725451E+00 -0.26743343649986E-01
H     11     1 -0.14871798349366E+01  0.44370585490276E+01 -0.13465572298028E+00
H     12     1  0.31382804100344E+01  0.33573114475938E+01 -0.10307643725305E+00
[GTO]
           1 0
 s           4   1.00000000000000     
   67.8191594740697      -0.201850789245403     
   11.6790204412661      -0.246385510808000     
  0.938459125048083       0.394518855091218     
  0.357670001280168       0.157234426148285     
 p           4   1.00000000000000     
   9.58240403549692        1.37296780219284     
   2.48457427772447        1.27052889614703     
  0.875889317934415       0.666458841672068     
  0.348706630431394       0.100543312761176     
 
           2 0
 s           4   1.00000000000000     
   63.5940244669410      -0.192343884147216     
   10.9514172315237      -0.234781079249537     
  0.879993102573770       0.375937539017009     
  0.335387152965211       0.149828892718628     
 p           4   1.00000000000000     
   7.29650404814951       0.976586663156674     
   1.89187454507126       0.903722267303458     
  0.666944321108241       0.474049584615364     
  0.265522026741309       7.151606771501186E-002
 
           3 0
 s           4   1.00000000000000     
   51.0493630955799      -0.163120632101274     
   8.79112274068875      -0.199110245810007     
  0.706404222589298       0.318820477536558     
  0.269228134134116       0.127065041842404     
 p           4   1.00000000000000     
   5.82636561408000       0.737164515452096     
   1.51068960187200       0.682163716148503     
  0.532564832880000       0.357830539292537     
  0.212023236906000       5.398303027584788E-002
 
           4 0
 s           4   1.00000000000000     
   51.0493630955799      -0.163120632101274     
   8.79112274068875      -0.199110245810007     
  0.706404222589298       0.318820477536558     
  0.269228134134116       0.127065041842404     
 p           4   1.00000000000000     
   5.82636561408000       0.737164515452096     
   1.51068960187200       0.682163716148503     
  0.532564832880000       0.357830539292537     
  0.212023236906000       5.398303027584788E-002
 
           5 0
 s           4   1.00000000000000     
   51.0493630955799      -0.163120632101274     
   8.79112274068875      -0.199110245810007     
  0.706404222589298       0.318820477536558     
  0.269228134134116       0.127065041842404     
 p           4   1.00000000000000     
   5.82636561408000       0.737164515452096     
   1.51068960187200       0.682163716148503     
  0.532564832880000       0.357830539292537     
  0.212023236906000       5.398303027584788E-002
 
           6 0
 s           4   1.00000000000000     
   51.0493630955799      -0.163120632101274     
   8.79112274068875      -0.199110245810007     
  0.706404222589298       0.318820477536558     
  0.269228134134116       0.127065041842404     
 p           4   1.00000000000000     
   5.82636561408000       0.737164515452096     
   1.51068960187200       0.682163716148503     
  0.532564832880000       0.357830539292537     
  0.212023236906000       5.398303027584788E-002
 
           7 0
 s           4   1.00000000000000     
   51.0493630955799      -0.163120632101274     
   8.79112274068875      -0.199110245810007     
  0.706404222589298       0.318820477536558     
  0.269228134134116       0.127065041842404     
 p           4   1.00000000000000     
   5.82636561408000       0.737164515452096     
   1.51068960187200       0.682163716148503     
  0.532564832880000       0.357830539292537     
  0.212023236906000       5.398303027584788E-002
 
           8 0
 s           3   1.00000000000000     
   3.37022769753360       0.273591105889083     
  0.613891182214980       0.264605406538605     
  0.166142911484160       8.246594753408230E-002
 
           9 0
 s           3   1.00000000000000     
   3.37022769753360       0.273591105889083     
  0.613891182214980       0.264605406538605     
  0.166142911484160       8.246594753408230E-002
 
          10 0
 s           3   1.00000000000000     
   3.37022769753360       0.273591105889083     
  0.613891182214980       0.264605406538605     
  0.166142911484160       8.246594753408230E-002
 
          11 0
 s           3   1.00000000000000     
   3.37022769753360       0.273591105889083     
  0.613891182214980       0.264605406538605     
  0.166142911484160       8.246594753408230E-002
 
          12 0
 s           3   1.00000000000000     
   3.37022769753360       0.273591105889083     
  0.613891182214980       0.264605406538605     
  0.166142911484160       8.246594753408230E-002
 
[MO]
Sym=     1a
Ene=   -1.06529526692882     
Spin= Alpha
Occup=     2.00000000
           1 -0.848546518927113     
           2  1.165295852670784E-002
           3 -2.318429073286355E-003
           4  6.732635093283432E-005
           5 -0.167174040356484     
           6 -0.246948449799362     
           7  4.913194603907180E-002
           8 -1.426753548188404E-003
           9 -5.121146673940109E-003
          10 -2.803584367033416E-002
          11 -3.156038262505424E-003
          12  1.038948974139365E-004
          13  3.887844026766606E-003
          14  1.529975284891530E-003
          15  1.692135030050013E-003
          16 -5.193834006318143E-005
          17  2.161055644792555E-003
          18  1.724903010795593E-003
          19 -3.431803170218051E-004
          20  9.964846175410344E-006
          21  3.887844025928597E-003
          22  7.651282788612283E-004
          23 -2.148760344757700E-003
          24  6.519703223593988E-005
          25 -5.121146484138846E-003
          26 -2.468997771834202E-002
          27  1.364617161606476E-002
          28 -4.085196768023613E-004
          29 -2.823382487250694E-004
          30 -6.846073583545841E-004
          31 -1.317145960637356E-004
          32 -6.846073519313832E-004
          33 -2.823382537756473E-004
Sym=     2a
Ene=  -0.935051995831386     
Spin= Alpha
Occup=     2.00000000
           1 -8.720505671097288E-002
           2 -7.579172576825273E-002
           3  1.507924036340869E-002
           4 -4.378817412433706E-004
           5  0.498126270784721     
           6 -0.223896103686620     
           7  4.454553669006358E-002
           8 -1.293534397364926E-003
           9  0.263780181514925     
          10  4.038189239132871E-002
          11  0.164791782699216     
          12 -5.027745103143320E-003
          13  0.104771140003946     
          14  7.185017815398322E-002
          15  3.496143086967256E-002
          16 -1.084331560504427E-003
          17  7.054940910005789E-002
          18  5.304585643726267E-002
          19 -1.055380714521432E-002
          20  3.064508604348053E-004
          21  0.104771139757758     
          22  5.298063552174478E-002
          23 -5.979730643428935E-002
          24  1.805515112831057E-003
          25  0.263780180183405     
          26 -2.582560109021907E-002
          27 -0.167687847925836     
          28  5.111841355180203E-003
          29  2.469996911692178E-002
          30  6.623401280046635E-003
          31  4.033119883893575E-003
          32  6.623401210896582E-003
          33  2.469996908832732E-002
Sym=     3a
Ene=  -0.896437401869351     
Spin= Alpha
Occup=     2.00000000
           1 -1.015048330723343E-009
           2 -2.914158360156153E-002
           3 -0.146342690153773     
           4  4.462990792185994E-003
           5 -1.056734314257652E-010
           6 -9.454057672995810E-002
           7 -0.474762213641687     
           8  1.447875160824747E-002
           9  0.360393325660223     
          10  6.630749137482393E-002
          11  6.265221292959360E-002
          12 -1.925722956265988E-003
          13  0.119667269859431     
          14  8.541885888967241E-002
          15 -9.396097936165658E-003
          16  2.621800699330128E-004
          17 -2.362131996591738E-009
          18 -7.913501324754853E-003
          19 -3.973988102354508E-002
          20  1.211941288535009E-003
          21 -0.119667272333630     
          22 -8.250795947374248E-002
          23  2.401400006522962E-002
          24 -7.079841937743480E-004
          25 -0.360393326500031     
          26 -3.725240510921234E-002
          27  8.325610603562617E-002
          28 -2.524028346574564E-003
          29  7.696436713750754E-002
          30  1.509604985281241E-002
          31 -5.696320645613479E-009
          32 -1.509604996061733E-002
          33 -7.696436746992166E-002
Sym=     4a
Ene=  -0.872357084609305     
Spin= Alpha
Occup=     2.00000000
           1  0.262531438985048     
           2  0.293253525210805     
           3 -5.834462798447253E-002
           4  1.694290920336923E-003
           5 -0.310791462372787     
           6 -9.729660599050537E-002
           7  1.935776978687224E-002
           8 -5.621033945879692E-004
           9  5.409285888282413E-002
          10 -0.177229123014328     
          11 -1.381416638701294E-002
          12  4.699923813015787E-004
          13  0.285543565561761     
          14  2.916256014158293E-002
          15  9.322798713143002E-002
          16 -2.846131168685650E-003
          17  0.317600468133874     
          18  0.112887442772073     
          19 -2.245966849435025E-002
          20  6.521320515238070E-004
          21  0.285543563798303     
          22 -8.774624860067014E-003
          23 -9.728429591636295E-002
          24  2.963902493042385E-003
          25  5.409285413711656E-002
          26 -0.158429095787590     
          27  8.059548013916375E-002
          28 -2.409205081324290E-003
          29  2.090827229137979E-003
          30  4.561413501849512E-002
          31  4.661936739563434E-002
          32  4.561413449046894E-002
          33  2.090825981245274E-003
Sym=     5a
Ene=  -0.836745723845607     
Spin= Alpha
Occup=     2.00000000
           1 -8.033776276782050E-009
           2  3.190532260957735E-002
           3  0.160221665786963     
           4 -4.886256692454116E-003
           5  5.168224950874395E-009
           6  4.753208865349711E-002
           7  0.238695765314539     
           8 -7.279469598344052E-003
           9  7.461718422591050E-002
          10 -0.255640342505213     
          11 -3.875656180365309E-002
          12  1.251149639298758E-003
          13  0.377143193568438     
          14  3.485548690945014E-002
          15 -2.166130347034631E-002
          16  6.496422207674730E-004
          17  1.176628595013833E-008
          18 -4.368759808656886E-002
          19 -0.219389607195058     
          20  6.690693085068513E-003
          21 -0.377143189551686     
          22 -4.049706925392524E-002
          23 -6.669443655024717E-003
          24  2.143439765778441E-004
          25 -7.461719357035823E-002
          26  0.221308877496347     
          27 -0.133648608664010     
          28  4.006666813171120E-003
          29 -3.348477791799383E-004
          30  0.105110258260630     
          31  1.046709714148597E-008
          32 -0.105110256834119     
          33  3.348455525814492E-004
Sym=     6a
Ene=  -0.832751884881359     
Spin= Alpha
Occup=     2.00000000
           1  0.257970456611941     
           2  0.487395213825369     
           3 -9.697034785439226E-002
           4  2.815940870993271E-003
           5 -0.122670043732678     
           6 -0.294474899373582     
           7  5.858764177683441E-002
           8 -1.701339545604182E-003
           9  0.144895193649271     
          10 -3.559833909238076E-002
          11  1.015590914054871E-002
          12 -2.992397732036285E-004
          13 -0.110373320317918     
          14  0.130650625046245     
          15 -0.139850872441711     
          16  4.220770718410889E-003
          17 -0.385747601834849     
          18 -2.144249257516988E-002
          19  4.266112313530503E-003
          20 -1.238039943395305E-004
          21 -0.110373346444824     
          22  0.174267865515382     
          23  7.918542084784742E-002
          24 -2.459151286385903E-003
          25  0.144895194812223     
          26 -3.677570329551940E-002
          27  4.243354414085214E-003
          28 -1.189239129205849E-004
          29  3.867780390980050E-002
          30 -2.543431941497851E-002
          31 -0.103243512001194     
          32 -2.543432708555663E-002
          33  3.867780589927990E-002
Sym=     7a
Ene=  -0.813520159205324     
Spin= Alpha
Occup=     2.00000000
           1  1.217142680815842E-008
           2 -1.300956028556461E-004
           3 -1.419901563683485E-002
           4 -0.466439019460787     
           5  3.726807692941849E-008
           6 -1.829339411107573E-004
           7 -1.995905225020121E-002
           8 -0.655657281232345     
           9  1.120252251844093E-008
          10 -6.765507330442738E-005
          11 -7.380133266627235E-003
          12 -0.242437399553915     
          13  1.236223831300097E-008
          14 -2.096117252304160E-005
          15 -2.283152367952871E-003
          16 -7.500156463294946E-002
          17  1.749066839241744E-008
          18 -1.188080842986464E-005
          19 -1.292939386449079E-003
          20 -4.247345697123587E-002
          21  2.143481869708397E-008
          22 -2.095056949624168E-005
          23 -2.283131135810226E-003
          24 -7.500156508144132E-002
          25  1.958583461095737E-008
          26 -6.765002680755649E-005
          27 -7.380093098987108E-003
          28 -0.242437399983150     
          29  4.129200054194949E-008
          30  4.341052039547624E-008
          31  3.514398641345026E-008
          32  3.569854423923645E-008
          33  2.044405381084814E-008
Sym=     8a
Ene=  -0.807629845673619     
Spin= Alpha
Occup=     2.00000000
           1  0.131317265414657     
           2  0.344238875122265     
           3 -6.848847885938031E-002
           4  1.988836257086265E-003
           5  9.466503997756101E-002
           6 -0.262198180505214     
           7  5.216597326451269E-002
           8 -1.514882009093254E-003
           9 -0.216078681398622     
          10  0.125666557595810     
          11  0.212962793317072     
          12 -6.517942316972454E-003
          13 -0.164887653322105     
          14 -0.106760834459673     
          15  0.167782499957911     
          16 -5.077684792439269E-003
          17  0.162789889861327     
          18 -2.617374362675363E-002
          19  5.207431908508948E-003
          20 -1.512406543043595E-004
          21 -0.164887649301107     
          22 -0.162899159622837     
          23 -0.114131947043806     
          24  3.519809075620969E-003
          25 -0.216078685379383     
          26  3.450514926375557E-002
          27 -0.244829961795948     
          28  7.443288164519170E-003
          29 -0.143744575823683     
          30 -7.988534740987328E-002
          31  5.945202208363780E-002
          32 -7.988534529879796E-002
          33 -0.143744577526767     
Sym=     9a
Ene=  -0.768130502174302     
Spin= Alpha
Occup=     2.00000000
           1  9.412899781951238E-010
           2  6.998563158561232E-002
           3  0.351452552173776     
           4 -1.071818912815305E-002
           5  3.795351854250491E-010
           6  3.680128484028128E-002
           7  0.184808075636093     
           8 -5.636059816307969E-003
           9  0.186901929206696     
          10 -0.124091966099456     
          11 -0.168404237536795     
          12  5.161064623443300E-003
          13 -0.140668517357008     
          14  0.239601947955390     
          15 -0.150450218276954     
          16  4.513014607746633E-003
          17  3.670536879161564E-009
          18  6.573893167021862E-002
          19  0.330126720255506     
          20 -1.006782896007130E-002
          21  0.140668506815189     
          22 -0.278975649040717     
          23 -4.727592737960587E-002
          24  1.517019718936607E-003
          25 -0.186901906762397     
          26  5.012041970650869E-002
          27 -0.203064870286263     
          28  6.167574636127889E-003
          29  0.133480604077020     
          30 -7.070149667216120E-002
          31  2.887335660321599E-008
          32  7.070150109120793E-002
          33 -0.133480581555995     
Sym=    10a
Ene=  -0.748148254155644     
Spin= Alpha
Occup=     2.00000000
           1 -9.221326591435075E-003
           2  0.245916335613433     
           3 -4.892650416884013E-002
           4  1.421181121671388E-003
           5  1.140600566515054E-002
           6 -8.890005430613089E-002
           7  1.768718850968976E-002
           8 -5.135522449063580E-004
           9  0.160571337214377     
          10  0.213218905422569     
          11 -0.190290848980449     
          12  5.733088269229952E-003
          13 -8.003386236626603E-002
          14 -0.146235209444115     
          15 -2.050061768548338E-002
          16  6.647297226538810E-004
          17  0.240226169497233     
          18 -0.270904426739676     
          19  5.389809848861975E-002
          20 -1.565383415185631E-003
          21 -8.003387301740202E-002
          22 -0.127235920220260     
          23  7.490944711797176E-002
          24 -2.244958478719297E-003
          25  0.160571348118473     
          26  0.269865889981619     
          27  9.417815244162051E-002
          28 -2.942281400159994E-003
          29  0.237236157961515     
          30  3.465912528691938E-002
          31  0.252448387622105     
          32  3.465912727981748E-002
          33  0.237236187370439     
Sym=    11a
Ene=  -0.726266700548263     
Spin= Alpha
Occup=     2.00000000
           1  6.926146530767546E-009
           2  0.153227344547584     
           3  0.769474526973621     
           4 -2.346686098113419E-002
           5  1.847754303173027E-008
           6 -3.842193363532626E-002
           7 -0.192946583118698     
           8  5.884312888564255E-003
           9  3.956346244379051E-002
          10  3.571739577208324E-002
          11  0.243745722379398     
          12 -7.429738316702818E-003
          13 -4.748478964851723E-003
          14  4.699894667073005E-002
          15  0.153854517860016     
          16 -4.696458631845519E-003
          17 -5.688927879248001E-008
          18 -1.817224794915753E-002
          19 -9.125697205386590E-002
          20  2.783138683920347E-003
          21  4.748531018623363E-003
          22  1.552300201066391E-002
          23  0.160116940506010     
          24 -4.878495376598147E-003
          25 -3.956351833332126E-002
          26  6.038073219536751E-002
          27  0.238838722016561     
          28 -7.287372261796893E-003
          29 -0.140835076640362     
          30 -9.821108951240033E-002
          31  3.065688335655990E-008
          32  9.821115034054428E-002
          33  0.140834965015158     
Sym=    12a
Ene=  -0.722254775028980     
Spin= Alpha
Occup=     2.00000000
           1 -2.258123835027729E-007
           2 -2.177218072727723E-004
           3 -2.368015994624858E-002
           4 -0.777883720593686     
           5 -2.265926568296360E-006
           6  5.095198165198701E-005
           7  5.430971983957054E-003
           8  0.178412806139906     
           9  1.526411313793453E-006
          10  7.281518557783973E-005
          11  7.879143815167900E-003
          12  0.258892599305322     
          13 -2.157589200036773E-006
          14  6.472053735734748E-005
          15  6.793201923329658E-003
          16  0.223035039014159     
          17  1.876986389531334E-006
          18  6.046145900353423E-005
          19  6.296302664977982E-003
          20  0.206849193826528     
          21 -2.189337250931513E-006
          22  6.288943609842064E-005
          23  6.785078114659200E-003
          24  0.223035287092242     
          25  1.558290412517162E-006
          26  7.370766509982908E-005
          27  7.882436201608568E-003
          28  0.258892498744394     
          29  2.165052700670806E-006
          30 -3.998861849143183E-006
          31 -1.160874883323375E-006
          32 -3.938743044361446E-006
          33  2.253969902748379E-006
Sym=    13a
Ene=  -0.720690092754121     
Spin= Alpha
Occup=     2.00000000
           1 -1.467658585690552E-002
           2 -5.928447690663110E-002
           3  1.179542329620670E-002
           4 -3.318092082902759E-004
           5 -0.170273335545019     
           6  8.961178651262147E-002
           7 -1.782893697042660E-002
           8  5.150169229969052E-004
           9  0.107559408128782     
          10  3.985647371588553E-002
          11 -0.130219699243709     
          12  3.949359112228821E-003
          13 -0.162286401231457     
          14  0.185615776157694     
          15  0.284396134347471     
          16 -8.711913725714114E-003
          17  0.123072336891252     
          18  0.211864048198580     
          19 -4.215175933506934E-002
          20  1.221490286616223E-003
          21 -0.162286400787979     
          22  6.251987350478387E-002
          23 -0.333764383577111     
          24  1.013998621466665E-002
          25  0.107559395806649     
          26  8.670429664722500E-002
          27  0.105039529521497     
          28 -3.225319701205668E-003
          29  0.154491098094943     
          30 -0.294356807620491     
          31 -8.875760863215011E-002
          32 -0.294356748358130     
          33  0.154491186994144     
Sym=    14a
Ene=  -0.715943897040317     
Spin= Alpha
Occup=     2.00000000
           1  9.847734333692213E-010
           2  8.431989345024361E-002
           3  0.423436264554952     
           4 -1.291380841501803E-002
           5 -2.140070544845223E-008
           6 -1.117329479318587E-003
           7 -5.611054166387574E-003
           8  1.712305176129967E-004
           9  1.726961843494551E-002
          10  0.252434505601224     
          11 -0.239732152858381     
          12  7.227289740237803E-003
          13 -1.249634881694500E-002
          14 -0.274675856791422     
          15 -2.667771871464058E-002
          16  8.887544101131916E-004
          17 -1.964096476532018E-009
          18 -2.823924394813852E-002
          19 -0.141811439428797     
          20  4.324889462662128E-003
          21  1.249631131956575E-002
          22  0.243520848945361     
          23 -0.129776272744242     
          24  3.882776433253465E-003
          25 -1.726960076634029E-002
          26 -0.325032958881573     
          27 -0.124841349993541     
          28  3.891279376729624E-003
          29  0.241475837084597     
          30  0.128942096809196     
          31  9.713333079258950E-009
          32 -0.128942174014332     
          33 -0.241475831534751     
Sym=    15a
Ene=  -0.667245889079677     
Spin= Alpha
Occup=     2.00000000
           1  1.099553707963964E-006
           2 -1.126691972173805E-004
           3 -1.187733306827392E-002
           4 -0.390201015378113     
           5 -1.710562783012501E-006
           6  1.154046998763766E-004
           7  1.252258338718786E-002
           8  0.411378849117767     
           9  1.510786977147286E-006
          10  8.427869700007546E-006
          11  1.497892516507940E-003
          12  4.914282025218646E-002
          13 -2.442842946132072E-006
          14 -9.791352409242069E-005
          15 -1.131478144149514E-002
          16 -0.371645997735287     
          17  1.322189959432554E-006
          18 -1.602661589077799E-004
          19 -1.643891176445676E-002
          20 -0.540092949625793     
          21 -2.435087429472820E-006
          22 -9.794727637008384E-005
          23 -1.131497274572270E-002
          24 -0.371646006329032     
          25  1.613170639080037E-006
          26  8.189849409666977E-006
          27  1.496531503813086E-003
          28  4.914284516761040E-002
          29 -2.818215867488362E-006
          30 -3.318477207786332E-006
          31  9.495118260160675E-006
          32 -3.907206401176428E-006
          33 -2.458549549545705E-006
Sym=    16a
Ene=  -0.665840893098119     
Spin= Alpha
Occup=     2.00000000
           1  4.928855286719845E-002
           2 -0.167291980333193     
           3  3.328399288673593E-002
           4 -9.578402144330804E-004
           5 -6.822837301828459E-002
           6  2.615270303636404E-002
           7 -5.203552060339696E-003
           8  1.417618015580759E-004
           9  6.865742031803268E-002
          10 -0.237345444007531     
          11  7.990641583081845E-002
          12 -2.366896488233439E-003
          13 -0.100433193779675     
          14  0.253163628557539     
          15 -6.128530057063765E-002
          16  1.803718743797029E-003
          17  7.100918824379492E-002
          18 -0.443392862382112     
          19  8.821621745834837E-002
          20 -2.549683005299986E-003
          21 -0.100433202214154     
          22  0.257345792325633     
          23 -4.028335940893690E-002
          24  1.162664770043415E-003
          25  6.865745027472772E-002
          26 -0.249866658429880     
          27  1.702746936738692E-002
          28 -4.499597612417333E-004
          29 -0.120712232677980     
          30 -0.155749046608211     
          31  0.420915133504423     
          32 -0.155749136392232     
          33 -0.120712174900222     
Sym=    17a
Ene=  -0.661544994707643     
Spin= Alpha
Occup=     2.00000000
           1 -6.698575495076807E-009
           2  2.696290835764814E-002
           3  0.135401755799837     
           4 -4.128989769584927E-003
           5  8.510902781444132E-009
           6 -4.118724071806206E-002
           7 -0.206833359746519     
           8  6.307381373813700E-003
           9 -5.882727861631991E-002
          10  2.164946625823407E-002
          11  0.163650389240379     
          12 -4.996416620543698E-003
          13  1.540840302524254E-002
          14 -9.224058215833848E-002
          15 -0.372874196955601     
          16  1.136954500164596E-002
          17 -1.349452435222754E-008
          18  6.542366154681901E-002
          19  0.328543072293761     
          20 -1.001901518845165E-002
          21 -1.540837649880461E-002
          22 -5.763322734760900E-002
          23 -0.379759107326696     
          24  1.158409488461682E-002
          25  5.882725851267996E-002
          26  4.269319939272787E-002
          27  0.159464139607067     
          28 -4.857616178247862E-003
          29 -0.186592194862917     
          30  0.315117807196313     
          31 -5.604113994175442E-008
          32 -0.315117767346460     
          33  0.186592226373923     
Sym=    18a
Ene=  -0.659235359119825     
Spin= Alpha
Occup=     2.00000000
           1 -3.875603856101294E-008
           2  5.925548453938391E-007
           3  2.305449182024014E-006
           4 -6.413453875216263E-008
           5  5.796682552152424E-008
           6 -7.273101635555850E-007
           7 -3.559243512808531E-006
           8  1.010532036513055E-007
           9 -1.046359215210082E-006
          10  1.424079142532206E-004
          11  1.546682596450462E-002
          12  0.508001269897439     
          13  4.344417451248148E-007
          14  1.138441676433192E-004
          15  1.261737839101746E-002
          16  0.414699640691141     
          17 -4.293761231745498E-008
          18  1.403751023262291E-006
          19  5.579369998373473E-006
          20 -1.614848812507893E-007
          21 -2.440278223035815E-007
          22 -1.168856516759601E-004
          23 -1.263069575942326E-002
          24 -0.414699221109869     
          25  9.868215123590737E-007
          26 -1.409837701804528E-004
          27 -1.546155946432357E-002
          28 -0.508001432853350     
          29 -3.091041965673928E-006
          30  5.515956302199432E-006
          31 -2.740930828136457E-007
          32 -5.309898818302581E-006
          33  3.238914214606697E-006
Sym=    19a
Ene=  -0.501662325204764     
Spin= Alpha
Occup=     0.00000000
           1 -9.947866485782421E-008
           2  5.162442258713599E-005
           3  5.612772649750884E-003
           4  0.184381315271525     
           5  1.609656373779150E-007
           6 -1.635124635853165E-004
           7 -1.785134186202226E-002
           8 -0.586417833296726     
           9 -5.997986100309854E-008
          10  1.320891295259404E-004
          11  1.439302268287442E-002
          12  0.472815712210389     
          13  1.704658108663899E-007
          14  4.952210600145932E-005
          15  5.408346075049770E-003
          16  0.177666190089629     
          17 -4.601606107096647E-007
          18 -1.685371497082640E-004
          19 -1.842899261624424E-002
          20 -0.605391470720283     
          21  1.529912950968886E-007
          22  4.955027958369746E-005
          23  5.408419208131796E-003
          24  0.177666175618359     
          25 -8.371652043388491E-008
          26  1.320714321719490E-004
          27  1.439311200518966E-002
          28  0.472815720886268     
          29 -2.234782178931903E-008
          30 -4.272509352981005E-008