17
 energy: -39.912294057873 gnorm: 0.000694667250 xtb: 6.7.1 (edcfbbe)
O            1.59791369684300        2.57104094107059       -0.06952541794115
C            1.39323104901061        1.38696120414214       -0.04063271681328
C            0.06058724194436        0.72147155269082       -0.00998933808868
C           -1.14896242701731        1.40082800591095        0.01398611541827
C           -2.32405676001284        0.66449763321414        0.04909506522781
C           -2.29355360607324       -0.72244820885964        0.06152778419441
C           -1.08231848233878       -1.40609953624055        0.03648731469683
C            0.07649395603075       -0.66535820461305       -0.00051938892495
S            1.76549948870152       -1.22613339281332       -0.04148296669108
O            2.17066368758917       -1.86789828270678        1.16257017727964
O            2.12422168537650       -1.81641645339393       -1.28610775845849
N            2.33451951841547        0.39964555923397       -0.02058599398994
Cl           4.01035185222073        0.66611773200565       -0.06525909671474
H           -1.15230038300162        2.47971557821783        0.00540181609421
H           -3.27368322129483        1.17730124629648        0.06810017672486
H           -3.21717425510761       -1.27977909135315        0.09155824333542
H           -1.04143304128576       -2.48344628280228        0.04537598465091
