[Molden Format]
[Title]
[Atoms] AU
O      1     8  0.42935040967690E+01  0.25020519258825E+01  0.13847296354978E+00
C      2     6  0.23507420926178E+01  0.13699017565593E+01  0.75815928969985E-01
N      3     7  0.21837274403345E+01 -0.12465580014891E+01 -0.42717946356858E-01
Cl     4    17  0.50132433904695E+01 -0.28617576869403E+01 -0.98071241915568E-01
C      5     6  0.12727956199980E-01 -0.27190638490223E+01 -0.12205237666806E+00
O      6     8  0.23246990965377E-01 -0.49662239492017E+01 -0.22292316699477E+00
N      7     7 -0.21719673809824E+01 -0.12657203030533E+01 -0.70049204599592E-01
Cl     8    17 -0.49862456894535E+01 -0.29057492236725E+01 -0.16081601889736E+00
C      9     6 -0.23634700593422E+01  0.13491622069059E+01  0.46235311136945E-01
O     10     8 -0.43167510383375E+01  0.24641722928149E+01  0.84445736714851E-01
N     11     7 -0.11760016386464E-01  0.25122782574488E+01  0.11277060119828E+00
Cl    12    17 -0.26997782854218E-01  0.57675065737680E+01  0.25888941386232E+00
[GTO]
           1 0
 s           4   1.00000000000000     
   69.1379619061966      -0.204787563700778     
   11.9061291327073      -0.249970231368273     
  0.956708277443407       0.400258802406396     
  0.364625204960737       0.159522066676936     
 p           4   1.00000000000000     
   8.21241932577816        1.13215567991868     
   2.12935769970981        1.04768407822548     
  0.750664482023609       0.549565082171590     
  0.298852465432831       8.290848659276662E-002
 
           2 0
 s           4   1.00000000000000     
   51.0493630955799      -0.163120632101274     
   8.79112274068875      -0.199110245810007     
  0.706404222589298       0.318820477536558     
  0.269228134134116       0.127065041842404     
 p           4   1.00000000000000     
   5.82636561408000       0.737164515452096     
   1.51068960187200       0.682163716148503     
  0.532564832880000       0.357830539292537     
  0.212023236906000       5.398303027584788E-002
 
           3 0
 s           4   1.00000000000000     
   63.5940244669410      -0.192343884147216     
   10.9514172315237      -0.234781079249537     
  0.879993102573770       0.375937539017009     
  0.335387152965211       0.149828892718628     
 p           4   1.00000000000000     
   7.29650404814951       0.976586663156674     
   1.89187454507126       0.903722267303458     
  0.666944321108241       0.474049584615364     
  0.265522026741309       7.151606771501186E-002
 
           4 0
 s           4   1.00000000000000     
   9.34674866189868      -0.125552785052236     
   2.63274953955161      -0.254029831967196     
  0.472092932487140       0.305184566430756     
  0.232271649766237       8.559661830788402E-002
 p           4   1.00000000000000     
   8.96653868620652      -0.317209215069455     
  0.926601749794952       0.357031126383567     
  0.418792332287928       0.280771537007085     
  0.202453454537036       4.152131922185704E-002
 d           3   1.00000000000000     
   3.20597745654841        2.13231494102881     
   1.00523897559031       0.971375176087545     
  0.391565355448865       0.129419082352652     
 
           5 0
 s           4   1.00000000000000     
   51.0493630955799      -0.163120632101274     
   8.79112274068875      -0.199110245810007     
  0.706404222589298       0.318820477536558     
  0.269228134134116       0.127065041842404     
 p           4   1.00000000000000     
   5.82636561408000       0.737164515452096     
   1.51068960187200       0.682163716148503     
  0.532564832880000       0.357830539292537     
  0.212023236906000       5.398303027584788E-002
 
           6 0
 s           4   1.00000000000000     
   69.1379619061966      -0.204787563700778     
   11.9061291327073      -0.249970231368273     
  0.956708277443407       0.400258802406396     
  0.364625204960737       0.159522066676936     
 p           4   1.00000000000000     
   8.21241932577816        1.13215567991868     
   2.12935769970981        1.04768407822548     
  0.750664482023609       0.549565082171590     
  0.298852465432831       8.290848659276662E-002
 
           7 0
 s           4   1.00000000000000     
   63.5940244669410      -0.192343884147216     
   10.9514172315237      -0.234781079249537     
  0.879993102573770       0.375937539017009     
  0.335387152965211       0.149828892718628     
 p           4   1.00000000000000     
   7.29650404814951       0.976586663156674     
   1.89187454507126       0.903722267303458     
  0.666944321108241       0.474049584615364     
  0.265522026741309       7.151606771501186E-002
 
           8 0
 s           4   1.00000000000000     
   9.34674866189868      -0.125552785052236     
   2.63274953955161      -0.254029831967196     
  0.472092932487140       0.305184566430756     
  0.232271649766237       8.559661830788402E-002
 p           4   1.00000000000000     
   8.96653868620652      -0.317209215069455     
  0.926601749794952       0.357031126383567     
  0.418792332287928       0.280771537007085     
  0.202453454537036       4.152131922185704E-002
 d           3   1.00000000000000     
   3.20597745654841        2.13231494102881     
   1.00523897559031       0.971375176087545     
  0.391565355448865       0.129419082352652     
 
           9 0
 s           4   1.00000000000000     
   51.0493630955799      -0.163120632101274     
   8.79112274068875      -0.199110245810007     
  0.706404222589298       0.318820477536558     
  0.269228134134116       0.127065041842404     
 p           4   1.00000000000000     
   5.82636561408000       0.737164515452096     
   1.51068960187200       0.682163716148503     
  0.532564832880000       0.357830539292537     
  0.212023236906000       5.398303027584788E-002
 
          10 0
 s           4   1.00000000000000     
   69.1379619061966      -0.204787563700778     
   11.9061291327073      -0.249970231368273     
  0.956708277443407       0.400258802406396     
  0.364625204960737       0.159522066676936     
 p           4   1.00000000000000     
   8.21241932577816        1.13215567991868     
   2.12935769970981        1.04768407822548     
  0.750664482023609       0.549565082171590     
  0.298852465432831       8.290848659276662E-002
 
          11 0
 s           4   1.00000000000000     
   63.5940244669410      -0.192343884147216     
   10.9514172315237      -0.234781079249537     
  0.879993102573770       0.375937539017009     
  0.335387152965211       0.149828892718628     
 p           4   1.00000000000000     
   7.29650404814951       0.976586663156674     
   1.89187454507126       0.903722267303458     
  0.666944321108241       0.474049584615364     
  0.265522026741309       7.151606771501186E-002
 
          12 0
 s           4   1.00000000000000     
   9.34674866189868      -0.125552785052236     
   2.63274953955161      -0.254029831967196     
  0.472092932487140       0.305184566430756     
  0.232271649766237       8.559661830788402E-002
 p           4   1.00000000000000     
   8.96653868620652      -0.317209215069455     
  0.926601749794952       0.357031126383567     
  0.418792332287928       0.280771537007085     
  0.202453454537036       4.152131922185704E-002
 d           3   1.00000000000000     
   3.20597745654841        2.13231494102881     
   1.00523897559031       0.971375176087545     
  0.391565355448865       0.129419082352652     
 
[MO]
Sym=     1a
Ene=   -1.10459481055450     
Spin= Alpha
Occup=     2.00000000
           1 -1.354642141255757E-004
           2  1.046560606797971E-003
           3 -1.968936675490245E-003
           4 -8.207638490082938E-005
           5  3.814298523090546E-004
           6  5.318784846215070E-003
           7 -9.313879830628025E-003
           8 -3.860172276977677E-004
           9  2.535476172568064E-002
          10  5.515388256697960E-002
          11 -3.172879061740197E-002
          12 -1.089961712013662E-003
          13  0.743765869890942     
          14  1.277823860767565E-003
          15 -7.719335009984560E-004
          16 -2.693159479304351E-005
          17 -1.774763195839942E-003
          18 -3.241999523360890E-004
          19  2.098963148176031E-003
          20  1.502190984457354E-003
          21  4.026054904134108E-005
          22 -1.167725208802293E-004
          23  1.873874536838286E-003
          24  6.850048795158274E-003
          25  5.444582690540808E-004
          26  6.608610751807711E-005
          27 -6.655187556875875E-004
          28  1.421509209226681E-003
          29  4.449231815871276E-004
          30  2.862372884506319E-005
          31 -4.286211228668706E-003
          32  9.588039478304817E-003
          33  4.906643616181735E-003
          34  2.786573200219910E-004
          35 -0.125734657607857     
          36  2.694684496439028E-004
          37  3.872926533760938E-005
          38  3.352841052111211E-006
          39  3.934357227284439E-004
          40 -3.862466464497105E-005
          41 -3.548110580834728E-004
          42  1.925320878241733E-004
          43  1.390163762511985E-005
          44  1.760808283600664E-005
          45 -2.254893589674207E-003
          46 -2.461822695683403E-003
          47 -3.057663948152828E-003
          48 -1.523002352741369E-004
          49  8.008492209607412E-004
          50 -8.585051542226524E-004
          51 -4.370903997141741E-004
          52 -2.484985198648897E-005
          53 -2.106620982309572E-002
          54  6.230779298024395E-004
          55 -5.281899356071265E-002
          56 -2.368622480734084E-003
          57 -0.617965867400154     
          58  7.107048204309897E-005
          59 -1.238692523138618E-003
          60 -5.522567338088301E-005
          61 -3.621003488369347E-004
          62  2.101878224245375E-003
          63 -1.739777875408440E-003
          64 -9.153943987652147E-005
          65  5.609969740100769E-006
          66  1.990925605677093E-004
Sym=     2a
Ene=   -1.10459479859599     
Spin= Alpha
Occup=     2.00000000
           1 -8.466916249942884E-004
           2 -6.622316412137799E-004
           3  2.658020817465285E-005
           4 -2.830382673943918E-006
           5  2.384001653664428E-003
           6 -1.430948089911653E-003
           7  1.151707325348209E-003
           8  4.303571741495409E-005
           9  9.689392725637446E-003
          10  2.139356055175018E-002
          11 -1.157170665004816E-002
          12 -3.897470536565931E-004
          13  0.284230613737547     
          14  5.432754950690165E-004
          15 -1.988101179406224E-004
          16 -5.601268333351946E-006
          17 -7.768104355931270E-004
          18 -2.546678572600810E-005
          19  8.022772213191350E-004
          20  5.070056977029078E-004
          21  1.168404657539551E-005
          22 -3.992693528194812E-005
          23 -1.521826370423288E-003
          24  8.437572055223252E-003
          25 -3.805276310172866E-004
          26  3.418339084371900E-005
          27  5.404972598392095E-004
          28  1.754123775575910E-003
          29 -3.485404162955901E-004
          30 -4.995514312916888E-006
          31 -2.679969086914524E-002
          32  5.804678369888355E-002
          33  3.393583307505631E-002
          34  1.877033300460794E-003
          35 -0.786155397969246     
          36  1.354418474527468E-003
          37  8.081854092756309E-004
          38  4.455967568011983E-005
          39  1.870481256365370E-003
          40  3.466098242713649E-004
          41 -2.217091080636735E-003
          42  1.588142161564254E-003
          43  1.000596665891042E-004
          44  1.429327588822572E-004
          45 -8.614060221243426E-004
          46  4.829518382850318E-003
          47  8.923009432983204E-003
          48  4.301339313870261E-004
          49  3.059432578670429E-004
          50  8.707137766139875E-004
          51  1.929398449326666E-003
          52  9.195208521507820E-005
          53  1.711468699238521E-002
          54  2.617781120387773E-004
          55  4.291453129521151E-002
          56  1.929132605507051E-003
          57  0.502047157330732     
          58  7.563880849626028E-005
          59  1.006904622000602E-003
          60  4.570975274238413E-005
          61  2.954646545971154E-004
          62 -1.708804685633948E-003
          63  1.413340031036832E-003
          64 -8.453873763775617E-005
          65 -1.168700142538399E-005
          66 -1.627739894552785E-004
Sym=     3a
Ene=   -1.10449227547297     
Spin= Alpha
Occup=     2.00000000
           1  1.154410317782668E-003
           2  7.023793757621200E-004
           3  4.092438589396465E-004
           4  2.264920481405684E-005
           5 -3.537973418502473E-003
           6  1.235939251787162E-003
           7  7.199110206501918E-004
           8  3.984330267287020E-005
           9 -2.015979585774614E-002
          10 -4.187737780598826E-002
          11  2.390530055508955E-002
          12  8.192440441102248E-004
          13 -0.563256345786460     
          14 -8.194305233868279E-004
          15  4.678112502923397E-004
          16  1.601346603916557E-005
          17  1.285113169611239E-003
          18  1.994996997225419E-004
          19 -1.484612869333781E-003
          20 -1.059594967364448E-003
          21 -2.813480842024558E-005
          22  8.106301985029233E-005
          23 -3.538198380596637E-003
          24  7.567454064234180E-006
          25 -1.429478230090095E-003
          26 -6.416389741791827E-005
          27  1.154490818844153E-003
          28  3.985097404608772E-006
          29 -8.124471880250544E-004
          30 -3.646830143012983E-005
          31 -2.016357905310435E-002
          32  4.166008350318254E-002
          33  2.427751605021136E-002
          34  1.343633526018214E-003
          35 -0.563367489679095     
          36  8.152137409408284E-004
          37  4.751170734054444E-004
          38  2.626545224562312E-005
          39  1.268125414727294E-003
          40  2.157615625085210E-004
          41 -1.483886977235815E-003
          42  1.069571134752114E-003
          43  6.738316702088817E-005
          44  9.486183483423790E-005
          45 -3.538309851450048E-003
          46 -1.242273925045531E-003
          47  7.098122208061011E-004
          48  2.432949738436975E-005
          49  1.154529731970550E-003
          50 -7.061600220823011E-004
          51  4.032438894136392E-004
          52  1.381993189333264E-005
          53 -2.016105291877538E-002
          54  2.255847748749760E-004
          55 -4.818117403171216E-002
          56 -2.162727171909886E-003
          57 -0.563293226060461     
          58  4.421725342384494E-006
          59 -9.428110100822500E-004
          60 -4.227358563033440E-005
          61 -3.218173397439042E-004
          62  1.802864102035824E-003
          63 -1.481046762291920E-003
          64 -1.187357505612409E-005
          65  7.648140082098174E-006
          66  1.705918906840881E-004
Sym=     4a
Ene=  -0.789740365677253     
Spin= Alpha
Occup=     2.00000000
           1  0.115266520042977     
           2 -7.522261301302455E-002
           3 -4.383619125743899E-002
           4 -2.426057522759965E-003
           5  0.279461471267287     
           6 -5.593835164122121E-002
           7 -3.259823307340364E-002
           8 -1.804110940496795E-003
           9  0.250124403392162     
          10 -0.122853930611488     
          11  7.013000945097204E-002
          12  2.403177559141551E-003
          13 -6.616404954212519E-003
          14 -1.696256126698778E-002
          15  9.682926751466238E-003
          16  3.318237519086070E-004
          17  3.265200245035830E-003
          18 -4.280284590921921E-004
          19 -2.837171785943637E-003
          20 -3.610068409282293E-003
          21 -1.193199995962830E-004
          22  1.031927927470407E-004
          23  0.279461122224803     
          24 -3.028735627382324E-004
          25  6.470305855245091E-002
          26  2.904375810349075E-003
          27  0.115266182701042     
          28 -4.072903134571090E-004
          29  8.700857378995049E-002
          30  3.905645993250957E-003
          31  0.250124300485828     
          32  0.122192349444579     
          33  7.120794789884144E-002
          34  3.940809090686619E-003
          35 -6.616385368359440E-003
          36  1.687120506954551E-002
          37  9.831736537206592E-003
          38  5.441176075396253E-004
          39  3.206370578140209E-003
          40 -3.727403732977888E-004
          41 -2.833630204842420E-003
          42  3.645423227089665E-003
          43  2.061960751065558E-004
          44  1.501643596423348E-004
          45  0.279461129007161     
          46  5.624131741072643E-002
          47 -3.210475828647958E-002
          48 -1.100208427262082E-003
          49  0.115266204238514     
          50  7.562976668268842E-002
          51 -4.317245866767253E-002
          52 -1.479492275500754E-003
          53  0.250124402821733     
          54  6.617057999862680E-004
          55 -0.141337860822192     
          56 -6.344393035523006E-003
          57 -6.616407933114811E-003
          58  9.136005823389583E-005
          59 -1.951466010240663E-002
          60 -8.759800676347587E-004
          61 -2.211211418277492E-003
          62  5.035879476711649E-003
          63 -2.824668058434157E-003
          64 -3.938117676607539E-005
          65  2.647544038283188E-006
          66  4.083093489521510E-004
Sym=     5a
Ene=  -0.788019296125437     
Spin= Alpha
Occup=     2.00000000
           1 -0.347292921889680     
           2  0.145660785074835     
           3  8.290558986395002E-002
           4  4.608907400686102E-003
           5 -0.359772570386662     
           6 -9.945727420443423E-002
           7 -5.773267669404166E-002
           8 -3.197519388542593E-003
           9 -8.112212122095379E-002
          10 -3.665081656046042E-002
          11 -0.119815631320018     
          12 -5.604302394439189E-003
          13  1.229309047367859E-002
          14  3.850974791206094E-003
          15 -1.919264074531356E-002
          16 -8.386520329222698E-004
          17 -1.530568526277801E-003
          18  6.220379109376473E-004
          19  9.085306153401535E-004
          20  8.045025161308527E-004
          21  1.900339843532002E-005
          22 -9.977251356435147E-006
          23  6.101108221903807E-002
          24 -4.507657264333548E-004
          25 -1.949177890503077E-002
          26 -8.782339035216618E-004
          27  5.889464406256997E-002
          28  4.605131763650948E-003
          29  2.842349342765373E-002
          30  1.304673019695690E-003
          31  9.768858587169559E-002
          32 -6.071390130880512E-003
          33  7.641174853025921E-002
          34  3.395144971190068E-003
          35 -1.480349500219946E-002
          36  9.180015577933543E-003
          37  1.500380331459395E-002
          38  7.296988967511600E-004
          39  1.508350200187820E-003
          40 -4.159703212698066E-004
          41 -1.092379878918013E-003
          42  1.202647955276624E-003
          43  7.225404648544740E-005
          44  4.247584703307693E-005
          45  0.298761945750003     
          46 -8.312765311435287E-002
          47  4.705412984173465E-002
          48  1.608290421699889E-003
          49  0.288398445825808     
          50  0.122395965792871     
          51 -6.638539806314805E-002
          52 -2.237889657152597E-003
          53 -1.656604750125697E-002
          54 -0.191474423571303     
          55  4.800529617395442E-003
          56 -9.479941344735108E-004
          57  2.510401781005479E-003
          58 -2.313008906836764E-002
          59  2.524164938767824E-003
          60 -2.718391625781244E-005
          61  1.498032911325199E-004
          62 -3.338552309559243E-004
          63  1.840519398234044E-004
          64 -1.031800682621323E-003
          65 -4.659356491684849E-005
          66 -3.320187930495947E-005
Sym=     6a
Ene=  -0.788019292272793     
Spin= Alpha
Occup=     2.00000000
           1 -0.132504076574883     
           2  5.298567913392571E-002
           3  3.606360284232608E-002
           4  1.941793352542817E-003
           5 -0.137265469681643     
           6 -3.765019426013035E-002
           7 -2.253400144589829E-002
           8 -1.240944332360075E-003
           9  6.596501099116558E-002
          10 -9.414067502410460E-002
          11 -0.119336538411492     
          12 -5.932279325249445E-003
          13 -9.996191701302306E-003
          14 -1.809790860616011E-002
          15 -1.056831926139194E-002
          16 -5.846787419420741E-004
          17  2.364158929983382E-004
          18  5.006897892818468E-004
          19 -7.371056822801850E-004
          20 -1.339899000387071E-003
          21 -5.332560898577290E-005
          22  5.614650226262157E-005
          23  0.380205143001052     
          24  6.555056908757185E-004
          25 -0.121452970210017     
          26 -5.451223047551649E-003
          27  0.367016593999672     
          28 -1.588841463234080E-003
          29  0.176994699704878     
          30  7.940330006549279E-003
          31  3.727152925852464E-002
          32  0.102289331276819     
          33 -0.149939084083578     
          34 -6.113056728160513E-003
          35 -5.648042597097320E-003
          36  1.613387868661233E-002
          37 -1.590141820963379E-002
          38 -6.161805170164403E-004
          39 -2.708111830466154E-004
          40  6.856558566214696E-004
          41 -4.148446735748541E-004
          42  1.010644737297040E-003
          43  4.641244035573172E-005
          44  6.335098291415502E-005
          45 -0.242939494226096     
          46  6.724480115505679E-002
          47 -3.887598435508027E-002
          48 -1.337493043503250E-003
          49 -0.234512500524302     
          50 -9.645936103164857E-002
          51  5.934621106838606E-002
          52  2.079336730369504E-003
          53 -0.103236360391034     
          54  3.055676087096065E-002
          55  3.530002534915758E-002
          56  1.771278123979831E-003
          57  1.564422342839526E-002
          58  3.633077167785795E-003
          59  1.638014629592270E-002
          60  7.578115103107508E-004
          61  8.799382524130026E-004
          62 -2.030139162859420E-003
          63  1.150200910446417E-003
          64  1.818064668925801E-004
          65  6.226214578237937E-006
          66 -1.641145338916560E-004
Sym=     7a
Ene=  -0.768560084667442     
Spin= Alpha
Occup=     2.00000000
           1 -0.344179442051269     
           2  7.442437356206566E-002
           3  4.337101402599190E-002
           4  2.400322246791865E-003
           5 -7.400335239213590E-002
           6 -0.195676479424277     
           7 -0.114031037883181     
           8 -6.310839365752321E-003
           9  0.113010914707010     
          10 -8.416015258223425E-002
          11  4.804195735371174E-002
          12  1.646394501046842E-003
          13  2.065479520374794E-002
          14  7.516163016145145E-003
          15 -4.290528409579568E-003
          16 -1.470332373126383E-004
          17  1.274723907540938E-003
          18 -3.278146776485065E-004
          19 -9.469092298924318E-004
          20 -1.567148875526515E-003
          21 -5.479319779662815E-005
          22  2.261267709730973E-005
          23 -7.400339509769820E-002
          24 -1.059483758049793E-003
          25  0.226335698009292     
          26  1.015980267852284E-002
          27 -0.344179462344902     
          28  4.029657961458092E-004
          29 -8.608544370544899E-002
          30 -3.864200960988399E-003
          31  0.113010908713499     
          32  8.370692343123928E-002
          33  4.878046660564839E-002
          34  2.699729915788807E-003
          35  2.065479414992229E-002
          36 -7.475690979461185E-003
          37 -4.356476511861550E-003
          38 -2.410994533104604E-004
          39  1.249184288800622E-003
          40 -3.038118372993219E-004
          41 -9.453724515013005E-004
          42  1.582767588327775E-003
          43  8.650068232713535E-005
          44  4.300181859684910E-005
          45 -7.400336525934871E-002
          46  0.196735957816093     
          47 -0.112304675925105     
          48 -3.848554919870888E-003
          49 -0.344179447697809     
          50 -7.482734647566500E-002
          51  4.271440299150936E-002
          52  1.463806853938627E-003
          53  0.113010913471649     
          54  4.532343125707902E-004
          55 -9.682240029026880E-002
          56 -4.346093213948085E-003
          57  2.065479528302972E-002
          58 -4.047537511009000E-005
          59  8.647004750122462E-003
          60  3.881470987576325E-004
          61 -1.102812772816186E-003
          62  2.044288916877664E-003
          63 -9.414761440614779E-004
          64 -1.695929219928019E-005
          65 -1.853719427444369E-006
          66  1.550524194216692E-004
Sym=     8a
Ene=  -0.739473239909982     
Spin= Alpha
Occup=     2.00000000
           1  0.224999100423326     
           2  2.447740141014071E-002
           3 -3.036867548860585E-002
           4 -1.215300144952238E-003
           5 -0.105737392241165     
           6  0.214045582546910     
           7 -9.209495074213698E-003
           8  8.870361612295548E-004
           9 -1.276842984400015E-002
          10 -2.446756345991044E-002
          11 -4.640782127028477E-002
          12 -2.233128762145588E-003
          13  2.213697090304436E-003
          14  4.864681017071883E-003
          15  2.782425496416963E-003
          16  1.545163775265528E-004
          17  5.642172981003688E-004
          18 -6.688043390586162E-004
          19  1.045870409582474E-004
          20  6.451413549911331E-004
          21  3.219733389716689E-005
          22 -3.626336598207893E-005
          23  0.102532856258406     
          24 -0.127823794576580     
          25  0.174053230708998     
          26  7.041101362338128E-003
          27 -0.218180124296441     
          28 -4.234722295901721E-002
          29  5.453380223905162E-003
          30 -1.238038981906970E-005
          31  0.421308336770527     
          32  6.377773473512624E-002
          33  8.216754019079418E-003
          34  7.564760826731306E-004
          35 -7.304302980505105E-002
          36  7.983767016066778E-002
          37  4.919134292375218E-002
          38  2.694659061748944E-003
          39  4.815216481886473E-003
          40 -1.330542012490440E-003
          41 -3.484674469396033E-003
          42  5.352517757812004E-003
          43  2.986976039558149E-004
          44  1.446153027826912E-004
          45  3.204554769673553E-003
          46 -0.115675625075068     
          47 -0.213309672475182     
          48 -1.028396426142749E-002
          49 -6.818954892323864E-003
          50 -3.997263943521353E-002
          51 -7.026377546743950E-002
          52 -3.398880968812639E-003
          53 -0.408539919859691     
          54 -2.771886118134411E-002
          55  5.726444055091984E-002
          56  2.403757303878545E-003
          57  7.082936592721868E-002
          58  2.102327362722206E-003
          59  9.086223172368707E-002
          60  4.093938099603541E-003
          61  3.686337480082497E-003
          62 -7.051583566431173E-003
          63  3.365246086348677E-003
          64  5.502107535897558E-004
          65  2.683505561665230E-005
          66 -5.379768544508388E-004
Sym=     9a
Ene=  -0.739473239178504     
Spin= Alpha
Occup=     2.00000000
           1 -0.122029433687818     
           2  3.313397396754583E-002
           3 -6.298573808779040E-002
           4 -2.627688207451628E-003
           5  5.734722732130943E-002
           6  2.318772250911494E-002
           7 -0.233456742797803     
           8 -1.034492890558787E-002
           9  0.479113118390362     
          10 -5.919068863747804E-002
          11  3.217942274291102E-002
          12  1.085414306742213E-003
          13 -8.306478497085018E-002
          14 -9.254756702494245E-002
          15  5.297793918699410E-002
          16  1.817086405353286E-003
          17  5.211675266455263E-003
          18 -1.243585742626031E-003
          19 -3.968089523829233E-003
          20 -6.262947388225277E-003
          21 -2.168648649262458E-004
          22  1.033918920148203E-004
          23  6.289763432108475E-002
          24  0.206538589705258     
          25  0.108024637169928     
          26  6.107298260459116E-003
          27 -0.133840203022654     
          28  6.897324191356236E-002
          29  3.763034151868609E-003
          30  5.882024700459245E-004
          31 -0.228498772826153     
          32 -4.488000532709690E-003
          33 -5.599354232797819E-002
          34 -2.542159852182693E-003
          35  3.961527922003826E-002
          36 -4.607218952760708E-002
          37 -2.193369771068838E-002
          38 -1.265140885939267E-003
          39 -1.803298187815779E-003
          40 -8.478808595330890E-005
          41  1.888086273769088E-003
          42 -3.429969741699935E-003
          43 -1.800005651607202E-004
          44 -1.234603229436852E-004
          45 -0.120244879132861     
          46 -0.181204390313300     
          47  9.599413337103824E-002
          48  3.210344932670439E-003
          49  0.255869643897644     
          50 -6.818203905463542E-003
          51  1.411448538019937E-003
          52  2.194138958796263E-005
          53 -0.250614352357917     
          54  4.458329965664899E-002
          55  3.539918837392762E-002
          56  1.861007668221538E-003
          57  4.344950221728392E-002
          58 -4.381266677525116E-003
          59  5.571349520110498E-002
          60  2.475788292826661E-003
          61  2.270298207446989E-003
          62 -4.334132527390100E-003
          63  2.063834319943111E-003