[Molden Format]
[Title]
[Atoms] AU
O      1     8 -0.33717817218704E+01 -0.53802861036708E+00  0.10863178927178E+01
S      2    16 -0.12222228589083E+01  0.43931729406030E+00 -0.27708346614228E+00
O      3     8 -0.18096950323817E+01  0.13757600767635E+01 -0.27695969625346E+01
O      4     8  0.36414961999085E+00  0.21584055917993E+01  0.12188050353627E+01
O      5     8  0.64226653435171E+00 -0.20714774225692E+01 -0.76791782245215E+00
O      6     8  0.29512312807330E+01 -0.15437247476669E+01  0.42935992896173E+00
H      7     1  0.24460521780848E+01  0.17974781797988E+00  0.10801153940866E+01
[GTO]
           1 0
 s           4   1.00000000000000     
   69.1379619061966      -0.204787563700778     
   11.9061291327073      -0.249970231368273     
  0.956708277443407       0.400258802406396     
  0.364625204960737       0.159522066676936     
 p           4   1.00000000000000     
   8.21241932577816        1.13215567991868     
   2.12935769970981        1.04768407822548     
  0.750664482023609       0.549565082171590     
  0.298852465432831       8.290848659276662E-002
 
           2 0
 s           4   1.00000000000000     
   5.94059715667128      -8.937241731159805E-002
   1.67332031646937      -0.180826416098390     
  0.300052353376111       0.217239963388792     
  0.147626982610695       6.093036238655329E-002
 p           4   1.00000000000000     
   7.60402394306428      -0.258148203245547     
  0.785799530644415       0.290555694475872     
  0.355154539932778       0.228494836712103     
  0.171689541475341       3.379048730081900E-002
 d           3   1.00000000000000     
   1.51575937639239       0.574808919567051     
  0.475268595433768       0.261853961962925     
  0.185128831077629       3.488754942672512E-002
 
           3 0
 s           4   1.00000000000000     
   69.1379619061966      -0.204787563700778     
   11.9061291327073      -0.249970231368273     
  0.956708277443407       0.400258802406396     
  0.364625204960737       0.159522066676936     
 p           4   1.00000000000000     
   8.21241932577816        1.13215567991868     
   2.12935769970981        1.04768407822548     
  0.750664482023609       0.549565082171590     
  0.298852465432831       8.290848659276662E-002
 
           4 0
 s           4   1.00000000000000     
   69.1379619061966      -0.204787563700778     
   11.9061291327073      -0.249970231368273     
  0.956708277443407       0.400258802406396     
  0.364625204960737       0.159522066676936     
 p           4   1.00000000000000     
   8.21241932577816        1.13215567991868     
   2.12935769970981        1.04768407822548     
  0.750664482023609       0.549565082171590     
  0.298852465432831       8.290848659276662E-002
 
           5 0
 s           4   1.00000000000000     
   69.1379619061966      -0.204787563700778     
   11.9061291327073      -0.249970231368273     
  0.956708277443407       0.400258802406396     
  0.364625204960737       0.159522066676936     
 p           4   1.00000000000000     
   8.21241932577816        1.13215567991868     
   2.12935769970981        1.04768407822548     
  0.750664482023609       0.549565082171590     
  0.298852465432831       8.290848659276662E-002
 
           6 0
 s           4   1.00000000000000     
   69.1379619061966      -0.204787563700778     
   11.9061291327073      -0.249970231368273     
  0.956708277443407       0.400258802406396     
  0.364625204960737       0.159522066676936     
 p           4   1.00000000000000     
   8.21241932577816        1.13215567991868     
   2.12935769970981        1.04768407822548     
  0.750664482023609       0.549565082171590     
  0.298852465432831       8.290848659276662E-002
 
           7 0
 s           3   1.00000000000000     
   3.37022769753360       0.273591105889083     
  0.613891182214980       0.264605406538605     
  0.166142911484160       8.246594753408230E-002
 
[MO]
Sym=     1a
Ene=  -0.598904719965402     
Spin= Alpha
Occup=     2.00000000
           1 -8.641031088369996E-002
           2 -6.080776681727722E-002
           3 -2.722123387366799E-002
           4  3.638941631936228E-002
           5 -0.765352981922885     
           6 -1.781639055208823E-002
           7  5.121882637317808E-003
           8 -4.675483048904897E-003
           9 -6.385017472241223E-003
          10 -6.878085228489884E-003
          11  1.326310270073111E-002
          12  1.679106516059516E-002
          13 -2.712575615689114E-003
          14 -7.013993524284444E-003
          15 -8.641005074563786E-002
          16 -1.799216357745325E-002
          17  2.523439460322004E-002
          18 -6.929849814039299E-002
          19 -0.129704493733836     
          20  3.565323275732568E-002
          21  5.892601824609291E-002
          22  4.369024982947158E-002
          23 -0.189360469975838     
          24  4.086802370563966E-002
          25 -7.930524136396101E-002
          26 -2.280459947717359E-002
          27 -8.484591676293103E-003
          28  3.316474127657871E-002
          29 -9.056702285119471E-003
          30  8.939910355974506E-003
          31  1.086957903975160E-002
Sym=     2a
Ene=  -0.561860216193622     
Spin= Alpha
Occup=     2.00000000
           1  5.614118687750898E-002
           2  1.605876884675824E-002
           3  1.255686701919069E-002
           4 -1.253277385573062E-002
           5  0.168347918652985     
           6 -3.422875456259504E-002
           7  3.134178107223048E-002
           8  1.689362422143375E-003
           9 -1.521747457870799E-003
          10 -1.172771015185590E-002
          11  1.324945760972670E-002
          12  2.551853729991077E-002
          13  6.001702050946990E-003
          14 -3.675282448260753E-003
          15  5.614082518622315E-002
          16  1.542078900364679E-003
          17 -5.228079641655078E-003
          18  2.330054684513508E-002
          19  4.356983274358458E-002
          20 -3.225452188998880E-002
          21  9.767819416298755E-003
          22 -8.218489100228987E-003
          23 -0.528403641000825     
          24 -0.210467714574575     
          25  5.968276447709752E-003
          26 -8.229775170328082E-002
          27 -0.578626012016110     
          28  0.102585770545130     
          29  2.289968724499354E-002
          30  5.292179147284245E-002
          31 -0.103687248940396     
Sym=     3a
Ene=  -0.529606485155932     
Spin= Alpha
Occup=     2.00000000
           1 -3.796700572426237E-002
           2 -2.367279059268750E-003
           3 -1.379231535457972E-002
           4 -1.673157374683968E-003
           5 -5.745960284841573E-002
           6  1.413503265140031E-002
           7 -6.800720285033063E-002
           8 -2.802700862020342E-002
           9 -2.586251980207612E-003
          10  1.771210712014863E-002
          11 -1.512585513994102E-002
          12 -3.465269756554341E-002
          13 -1.285718007937321E-002
          14  2.913832979546508E-003
          15 -3.796726064198006E-002
          16  1.154632299802621E-003
          17 -9.477113228994281E-003
          18 -1.036740438869459E-002
          19 -0.242898238638226     
          20 -3.840426986409486E-002
          21  3.051164113071249E-002
          22 -4.135973092694165E-004
          23  0.620615128955580     
          24 -4.999580779098849E-002
          25 -9.580438804485925E-002
          26 -6.780185925443681E-002
          27 -0.557982482504007     
          28 -0.167542207623807     
          29 -0.124425568951086     
          30 -0.129625096679989     
          31 -0.164215672227720     
Sym=     4a
Ene=  -0.504618159780094     
Spin= Alpha
Occup=     2.00000000
           1 -0.298430401217941     
           2  2.543139989725642E-003
           3 -1.033397135438818E-003
           4  2.178663340254887E-002
           5 -0.101167510010217     
           6  0.126010462417373     
           7  4.928074924721865E-002
           8  7.550741697241448E-002
           9 -2.815917181516582E-003
          10  1.786740707992034E-002
          11 -1.505148989840376E-002
          12  2.333179472098078E-002
          13  3.177931529552888E-002
          14  4.605229882720426E-002
          15 -0.298427239798494     
          16  1.476108365818567E-002
          17  1.393566733684405E-002
          18 -8.372953000659307E-003
          19  0.743142559662472     
          20  8.803132006086738E-002
          21  1.108216623937068E-002
          22  4.116246577707293E-002
          23  0.130999723510282     
          24  1.489004136053742E-004
          25 -9.060949073101596E-003
          26 -4.435768768985568E-003
          27 -0.221529850281510     
          28 -8.993250286670097E-002
          29  2.343850357982213E-002
          30 -2.479757736018236E-002
          31  1.321530299193006E-002
Sym=     5a
Ene=  -0.491607185601180     
Spin= Alpha
Occup=     2.00000000
           1 -0.625218899951629     
           2  1.514086137607755E-002
           3  1.765478543222837E-002
           4 -3.765664561206357E-002
           5  7.366439230450519E-007
           6  5.846189015601424E-002
           7  7.162452185552969E-002
           8 -0.144310253294393     
           9 -3.537596114917031E-002
          10  3.481871781609058E-004
          11  3.502777397100941E-002
          12 -2.485882167006582E-002
          13  4.222327796522353E-002
          14 -1.044243974193669E-002
          15  0.625219363149590     
          16  1.504813094857127E-002
          17  1.933054561220142E-002
          18 -3.686194077699492E-002
          19 -2.495588234476878E-006
          20  1.140037026317242E-002
          21  1.396740903265567E-002
          22 -2.814233681236896E-002
          23 -6.633189780617740E-007
          24  1.408996359805614E-002
          25  1.726283773624247E-002
          26 -3.478096721047031E-002
          27 -2.257125795026456E-007
          28  4.557369350554668E-003
          29  5.583947987826562E-003
          30 -1.125064486431599E-002
          31  6.762629081668210E-009
Sym=     6a
Ene=  -0.463139864251208     
Spin= Alpha
Occup=     2.00000000
           1 -0.446863624252950     
           2  0.111580113340937     
           3  1.187824622650298E-002
           4 -6.584086822887529E-002
           5  0.185660765802500     
           6  9.391789707574603E-002
           7 -0.106561877542445     
           8 -1.484151331849664E-002
           9  1.934273111077899E-004
          10  2.365344021995818E-002
          11 -2.384686753106597E-002
          12 -4.176410720300076E-002
          13 -8.608580808875282E-003
          14  1.137458619263374E-002
          15 -0.446864703371220     
          16  4.440479631680231E-002
          17 -7.042082709083598E-002
          18  9.997631071075289E-002
          19 -0.401850160450562     
          20 -1.672388033531897E-002
          21 -0.140636389767402     
          22 -7.657697706149058E-002
          23 -5.674610733106086E-002
          24 -0.260250771162024     
          25  0.236580930277161     
          26  1.199231157192074E-002
          27 -2.085292288940570E-002
          28  5.418672101223580E-002
          29  0.270256555257897     
          30  0.156083780327019     
          31  0.140218770038102     
Sym=     7a
Ene=  -0.437867467258071     
Spin= Alpha
Occup=     2.00000000
           1 -0.348246307896966     
           2  0.119753361792534     
           3  0.116510156877418     
           4 -8.370592479964621E-002
           5  0.272073449607045     
           6 -4.913948011110796E-002
           7  0.125843514576302     
           8  4.255206340295077E-002
           9 -1.863698506885942E-003
          10  1.624181108502809E-002
          11 -1.437811257814215E-002
          12 -6.206146808584920E-003
          13  8.673341386397394E-003
          14  2.226282800582189E-002
          15 -0.348247052999285     
          16  1.058223406455211E-002
          17 -1.724131112889475E-002
          18  0.185776510041333     
          19 -0.116362535358745     
          20 -0.261285743534313     
          21  3.393389539753328E-002
          22 -8.900626672775064E-002
          23 -0.169340601126991     
          24  0.182419312016773     
          25 -0.141665418860559     
          26  3.582250018321025E-003
          27  0.237334645627000     
          28  0.147028072683613     
          29 -0.424960310692673     
          30 -0.151359105764870     
          31 -0.268841507014239     
Sym=     8a
Ene=  -0.421442274013037     
Spin= Alpha
Occup=     2.00000000
           1  1.556237622572164E-002
           2 -2.639615248693839E-003
           3 -3.076697604597754E-002
           4 -2.886775486504284E-002
           5 -3.806118292317407E-002
           6 -4.845051199346135E-002
           7 -6.484990413582165E-002
           8 -5.181294701615595E-002
           9 -2.541338599650159E-002
          10  3.713177595761033E-002
          11 -1.171838996110875E-002
          12 -6.990937441452195E-003
          13 -4.042222566696074E-003
          14  3.231017861064826E-002
          15  1.556510006566964E-002
          16 -9.837889553373716E-003
          17 -3.958253904409176E-002
          18 -1.110501092785915E-002
          19  0.158667738204736     
          20  4.017050052528993E-002
          21  0.128202374954400     
          22  7.990464177471497E-002
          23  0.300901778639101     
          24 -0.414664897212738     
          25 -0.297810867559627     
          26 -0.315785933116075     
          27  0.263990167707160     
          28  0.533753141426287     
          29 -5.996913254067053E-002
          30  0.186455934495517     
          31 -1.941584131809966E-002
Sym=     9a
Ene=  -0.396505679738526     
Spin= Alpha
Occup=     2.00000000
           1  8.426024661599238E-002
           2 -0.126476879500059     
           3 -1.500036603399863E-003
           4  2.780008268494520E-002
           5 -1.726134797471443E-006
           6  4.625523021635442E-002
           7  5.666531279451398E-002
           8 -0.114178555031760     
           9  3.183516374542141E-002
          10 -2.564360957551398E-002
          11 -6.191554169907435E-003
          12  1.043410884946441E-002
          13 -4.392269510613804E-002
          14  3.160518031396208E-002
          15 -8.425804824740869E-002
          16  8.064676453927928E-002
          17 -5.465228891987384E-002
          18  8.532579646039870E-002
          19  2.998558773205999E-006
          20  3.311255219214754E-002
          21  4.056680501105808E-002
          22 -8.172728937847898E-002
          23  1.157922176815918E-007
          24  0.229184049553482     
          25  0.280796965128637     
          26 -0.565758012886051     
          27  3.428963942795446E-007
          28  0.193971465679276     
          29  0.237653791756098     
          30 -0.478832800574290     
          31 -4.764847949655781E-007
Sym=    10a
Ene=  -0.348439700860527     
Spin= Alpha
Occup=     2.00000000
           1 -0.112631263302990     
           2  6.738335845910075E-002
           3  8.157269904189098E-002
           4 -0.406060954959633     
           5  2.908769970472789E-002
           6 -0.300533923841842     
           7 -0.108130525260719     
           8 -0.175422887990549     
           9  3.335632946698788E-002
          10 -1.384828080932554E-002
          11 -1.950804865766234E-002
          12  4.300469851098727E-003
          13  3.604114988233160E-002
          14  1.623004245820440E-002
          15 -0.112634453179865     
          16 -0.204808864846765     
          17 -0.251911164171671     
          18  0.265849869146494     
          19  0.112383111393774     
          20  0.285833227764134     
          21  0.287606322828984     
          22  0.258534956428612     
          23 -5.314201729529665E-002
          24  0.104778940217702     
          25 -2.843707852759775E-002
          26  2.833357479011407E-002
          27 -4.856782566418814E-002
          28 -0.160308986110574     
          29  7.427722045872044E-002
          30 -2.806537464484870E-002
          31  6.025928293811457E-002
Sym=    11a
Ene=  -0.344379732014467     
Spin= Alpha
Occup=     2.00000000
           1 -2.768221966159580E-002
           2 -4.160706849242757E-002
           3  0.302483785878904     
           4  1.086158415705146E-003
           5 -1.144158611122359E-002
           6 -0.154724468874908     
           7  0.284595891400141     
           8  7.843472956761394E-002
           9  9.224594821564612E-003
          10  4.915667259444881E-004
          11 -9.716161547509100E-003
          12 -2.067467579053472E-002
          13 -2.688290788669020E-003
          14 -4.099765162412666E-003
          15 -2.777974239794815E-002
          16 -0.117376502247223     
          17  0.209417727478987     
          18  0.188773906132594     
          19 -0.122125096617249     
          20 -0.129703569048941     
          21 -0.137976949988934     
          22 -0.121204370977385     
          23  0.156211664938755     
          24  0.107848058123541     
          25 -0.469937465624176     
          26 -0.189500757564891     
          27 -0.146679763705407     
          28 -0.107642183978514     
          29  0.374874688058058     
          30  0.142570853275112     
          31  0.222312476285775     
Sym=    12a
Ene=  -0.343520081162640     
Spin= Alpha
Occup=     2.00000000
           1 -0.140782255574740     
           2  0.405526566254084     
           3  0.154153225917664     
           4 -4.729811608068703E-002
           5 -4.651509775934680E-006
           6 -0.113323475374861     
           7 -0.138671931715807     
           8  0.279616835276552     
           9 -2.139667300273285E-002
          10 -2.989815926084738E-002
          11  5.129483226358023E-002
          12 -2.923418415294152E-002
          13  1.850024206105314E-002
          14  2.007787596226000E-002
          15  0.140762036916632     
          16 -0.240120756196826     
          17  4.874106824748671E-002
          18 -0.361075927261161     
          19 -3.968314217652500E-005
          20 -0.145712127498684     
          21 -0.178512926020071     
          22  0.359543515973214     
          23  5.239421259102229E-005
          24  4.368383616891502E-002
          25  5.331406281003320E-002
          26 -0.107804528245759     
          27 -5.040953787970381E-005
          28  0.104566231198583     
          29  0.128297052762391     
          30 -0.258182525139622     
          31  7.690353142290315E-005
Sym=    13a
Ene=  -0.299481226817191     
Spin= Alpha
Occup=     2.00000000
           1  2.595915908877083E-002
           2 -9.751098133056652E-002
           3  0.166238059811091     
           4  0.102079434315957     
           5 -6.352428765173289E-002
           6 -6.196783317409085E-002
           7  6.285906208698472E-002
           8  6.093890007192868E-003
           9 -4.519191218482887E-002
          10  8.178372413241441E-002
          11 -3.659181194758554E-002
          12 -8.403761414432166E-002
          13 -4.693794351440550E-002
          14  3.231934387080736E-002
          15  2.595898270151882E-002
          16 -6.357611815448068E-002
          17  0.207817223768515     
          18  1.831642678326588E-002
          19  7.874207503032291E-002
          20 -0.453761170544275     
          21  0.608356023629558     
          22  0.118114390253745     
          23  5.957906076952586E-002
          24 -0.131878513535390     
          25  0.345755512081435     
          26  0.118185758684633     
          27  6.960906722314557E-002
          28 -5.345164762090469E-002
          29  0.202916062956425     
          30  7.905435654722105E-002
          31 -6.351151917893903E-002
Sym=    14a
Ene=  -0.292722933510472     
Spin= Alpha
Occup=     2.00000000
           1 -3.290216951124763E-002
           2  0.242718807772769     
           3 -0.291735811407491     
           4 -0.222624795457629     
           5  2.332159174562376E-007
           6 -2.542251381459351E-002
           7 -3.114709036736802E-002
           8  6.275424897019363E-002
           9  8.985088970581550E-003
          10  9.878951909259656E-002
          11 -0.107774608063178     
          12  5.291058999381703E-002
          13  1.240400257990070E-002
          14 -8.403524017640980E-002
          15  3.290179343878635E-002
          16 -0.141525850695272     
          17  0.415707226901552     
          18 -2.716323409823482E-002
          19 -3.340738333525745E-007
          20  0.171285752806329     
          21  0.209844437235944     
          22 -0.422802340050128     
          23 -1.198880352467401E-006
          24 -8.321726508657751E-002
          25 -0.101958078051031     
          26  0.205429286099775     
          27  1.325517999345912E-007
          28  0.138739369761393     
          29  0.169980284889767     
          30 -0.342490534929117     
          31 -3.792235634006143E-007
Sym=    15a
Ene=  -0.278667315351753     
Spin= Alpha
Occup=     2.00000000
           1  3.664264633520935E-002
           2 -0.510167853890484     
           3  0.138911361690416     
           4 -0.243110378995813     
           5 -1.858193540091214E-002
           6  5.226442425924004E-002
           7  1.530159234915328E-002
           8  2.876551819135574E-002
           9  0.104115302630235     
          10 -1.399103094793372E-002
          11 -9.012427168230150E-002
          12 -5.207443371890375E-002
          13  9.080505345325068E-002
          14  5.412766432557983E-002
          15  3.664129472224643E-002
          16 -0.570700466621028     
          17  6.474910638509486E-002
          18 -9.367110064153365E-002
          19  1.011020807335225E-003
          20 -2.051240624932504E-002
          21 -0.250865212583982     
          22 -0.132810643252991     
          23  3.145455720735536E-002
          24 -0.124325355045792     
          25  0.217066000458696     
          26  5.737615046206698E-002
          27  2.390759994383859E-002
          28  0.124034156723989     
          29 -0.146758473956934     
          30 -2.260179005151462E-002
          31 -8.065995592254102E-002
Sym=    16a
Ene=  -0.270423984354498     
Spin= Alpha
Occup=     2.00000000
           1 -3.922899089494581E-002
           2  0.117594806310448     
           3  0.446813388987080     
           4 -0.199233486031202     
           5 -3.305924799096113E-007
           6 -2.724134388317911E-002
           7 -3.337667494003829E-002
           8  6.724790434288215E-002
           9  7.236826165385771E-002
          10 -3.054977764411562E-002
          11 -4.181848400974209E-002
          12  3.679262309510683E-002
          13 -9.335304390854189E-002
          14  4.752405753048016E-002
          15  3.923076778536498E-002
          16  0.151592536324948     
          17 -0.117008946093362     
          18 -0.465299960538593     
          19 -4.815416434487338E-007
          20  0.184505985104676     
          21  0.226061067140708     
          22 -0.455477208604062     
          23 -1.113211962613308E-009
          24  7.203027319545335E-002
          25  8.825261555691000E-002
          26 -0.177812978554928     
          27  1.068054218679296E-007
          28 -0.102080471800900     
          29 -0.125069300212535     
          30  0.251993305029347     
          31 -4.642973334507320E-007
Sym=    17a
Ene=  -0.267435757330711     
Spin= Alpha
Occup=     2.00000000
           1  1.403760904482364E-002
           2 -6.589689250324704E-002
           3 -0.444791860491178     
           4 -0.254245935089268     
           5 -1.474823532011989E-002
           6  4.190469333820552E-003
           7  1.519553471104509E-002
           8  9.238395545030543E-003
           9 -3.951319290199410E-002
          10  2.972411192032631E-002
          11  9.789080981667789E-003
          12  9.601219359550700E-002
          13  4.860132787827812E-002
          14  7.973362992718512E-002
          15  1.403643712487997E-002
          16 -6.980525147368231E-002
          17 -0.449557461760578     
          18 -0.244601578489624     
          19 -1.915251261002549E-002
          20 -0.505259939028648     
          21  5.512803451042202E-002
          22 -0.177311829976480     
          23 -7.188855257052790E-003
          24  9.011656206013897E-002
          25 -0.185965863198227     
          26 -5.579318236550852E-002
          27  7.770879546621546E-003
          28 -0.130726630557449     
          29  0.221220025536719     
          30  5.683847108945125E-002
          31  3.672981953609543E-002
Sym=    18a
Ene=  -0.258007785760733     
Spin= Alpha
Occup=     2.00000000
           1 -3.163125259919586E-003
           2  2.782475061508794E-002
           3 -0.302428010105973     
           4 -0.407421338478745     
           5  1.263051997367552E-007
           6 -8.288769312636590E-003
           7 -1.015520572692659E-002
           8  2.046070863624617E-002
           9  1.593476306022804E-002
          10  2.038427294767908E-002
          11 -3.631903600790711E-002
          12  2.087621224786487E-002
          13 -1.421556456716491E-002
          14 -1.330370510485069E-002
          15  3.163369499728585E-003
          16  0.126464290894928     
          17  0.491468704181038     
          18  2.656737310707595E-002
          19 -6.569424402800875E-008
          20 -8.750015462665769E-002
          21 -0.107205284825694     
          22  0.215996631742521     
          23 -4.141951113713246E-007
          24  0.171672439383739     
          25  0.210332922327783     
          26 -0.423785630818565     
          27 -2.099709790240654E-007
          28 -0.160977554259774     
          29 -0.197230428268881     
          30  0.397384205645819     
          31  2.782808480574300E-007
Sym=    19a
Ene=  -0.254735912119410     
Spin= Alpha
Occup=     2.00000000
           1  3.447082835377613E-003
           2  0.326255805496680     
           3 -0.200524091780819     
           4  0.460698076635693     
           5  1.995295307286493E-007
           6 -6.187080667513418E-004
           7 -7.585641624831409E-004
           8  1.527957083252639E-003
           9 -2.108865472129056E-002
          10  3.524721029553320E-003
          11  1.756393369173724E-002
          12 -1.325676895116209E-002
          13  2.594632870480179E-002
          14 -9.131898284881181E-003
          15 -3.446662223656253E-003
          16 -0.572153377158926     
          17 -0.100724137628900     
          18  0.146271570810805     
          19 -2.045208990399178E-007
          20  9.505164541674259E-002
          21  0.116450979338697     
          22 -0.234628579827058     
          23 -5.170495531291388E-007
          24  0.124697396032478     
          25  0.152780186006300     
          26 -0.307824576005602     
          27 -2.260398839070082E-007
          28 -0.116558752114289     
          29 -0.142810296357992     
          30  0.287733797552048     
          31  1.963895609286162E-007
Sym=    20a
Ene=   1.091096915282329E-002
Spin= Alpha
Occup=     0.00000000
           1 -8.664568301154056E-002
           2 -0.164120914821231     
           3  5.376426031466431E-002
           4  0.160831354738977     
           5  0.272347428964999     
           6 -2.471170796285906E-002
           7 -0.196015968745292     
           8 -0.107296840732643     
           9 -0.112811883293161     
          10  0.122553113433191     
          11 -9.741230140030812E-003
          12  6.699542113714121E-002
          13  1.598711296226217E-002
          14  0.140874065482322     
          15 -8.664469850389463E-002
          16 -4.886486125492296E-002
          17  0.194963412711591     
          18 -0.123663565385226     
          19 -7.459621818538940E-002
          20  4.959819403692384E-002
          21  1.685433801490901E-002
          22  2.845830512294625E-002
          23 -0.465487285380195     
          24 -0.505427506023953     
          25 -0.281222475391952     
          26 -0.344317963379895     
          27  0.365724980131624     
          28 -0.697238516371287     
          29 -0.130259263817690     
          30 -0.347097136876197     
          31  3.305150883643673E-002
Sym=    21a
Ene=   6.387637861554130E-002
Spin= Alpha
Occup=     0.00000000
           1  0.278625393193456     
           2  0.368261872502497     
           3  0.231270328654573     
           4 -0.198526716482520     
           5 -0.974591123816036     
           6 -0.123705181687545     
           7  5.815563160728670E-003
           8 -4.722609358012202E-002
           9 -3.751035897935195E-002
          10 -6.267716783041924E-002
          11  0.100187526809771     
          12  0.212279956854015     
          13  4.984367966441117E-002
          14  3.553418980303789E-003
          15  0.278625794546847     
          16  0.102583636099751     
          17 -9.423053345818509E-002
          18  0.457290272427856     
          19  0.320041587276047     
          20 -0.270218719278357     
          21 -0.358665673314487     
          22 -0.287485354062856     
          23  0.236583678371742     
          24 -0.441874887671100     
          25  0.348707451171161     
          26 -5.935742949453900E-003
          27  0.201409033176996     
          28 -0.197489070949950     
          29 -5.944452484125816E-003
          30 -8.295079770902455E-002
          31 -0.121150420205533     
Sym=    22a
Ene=   0.137630648822774     
Spin= Alpha
Occup=     0.00000000
           1 -1.038560542505632E-002
           2  7.159143923208711E-002
           3 -0.338947478019810     
           4  4.990648696726668E-002
           5 -4.016770191277495E-002
           6 -0.572415369029404     
           7  0.684176638633921     
           8  0.107684337576423     