17
 energy: -36.851366525348 gnorm: 0.000557234398 xtb: 6.7.1 (edcfbbe)
C           -1.15857545582623       -1.03981512317980       -0.81728523011450
C           -0.30494787412865       -0.17409392017354        0.10593860606814
C           -0.86735816575471       -0.12503764590557        1.52431212556295
C            1.13960962433102       -0.70164864536897        0.13237943391541
O            1.50827608899517       -1.77612272342404        0.50628856740108
N            1.90581536398782        0.31486061226036       -0.36002669690526
Cl           3.60931871514815        0.26150663192048       -0.55104509463424
C            1.17165174108886        1.47123780544488       -0.72047570006437
O            1.62445813736383        2.47919108109928       -1.17056231241692
N           -0.11335724554407        1.15402239569338       -0.43673589095727
Cl          -1.41173140045173        2.23791037982112       -0.69869891071820
H           -2.17828552221546       -0.66377106067633       -0.83798736198335
H           -0.75677074846491       -1.02795918772699       -1.82778711007408
H           -1.15884322084716       -2.06282064145420       -0.45191239585588
H           -0.86031979904337       -1.12509219728236        1.94843359687058
H           -0.26200275463301        0.52621516389382        2.15050395452702
H           -1.88693748400552        0.25141707505847        1.50466041937887
