[Molden Format]
[Title]
[Atoms] AU
F      1     9 -0.55940632083618E+01  0.52088329309797E+00  0.79784735748479E+00
N      2     7 -0.30357853632624E+01  0.27506104957489E+00  0.42108598622229E+00
C      3     6 -0.19357215317553E+01  0.28145761171270E+01  0.15841298230182E+00
C      4     6  0.92307976553853E+00  0.25255821958103E+01 -0.29808328864721E+00
N      5     7  0.16398239784556E+01 -0.18897334012305E+00 -0.29054284718767E+00
C      6     6  0.44321351902931E+01 -0.46068612726888E+00 -0.70706797187589E+00
Cl     7    17  0.62010049388760E+01  0.11019601103854E+01  0.17383259873424E+01
C      8     6  0.91615612514071E+00 -0.13299897938198E+01  0.21705487005610E+01
C      9     6 -0.19425525656199E+01 -0.10286672626309E+01  0.26195887890882E+01
C     10     6  0.23204231870798E+00 -0.14958473449537E+01 -0.23356056285819E+01
C     11     6 -0.26366376462080E+01 -0.12103253492451E+01 -0.18973113297076E+01
H     12     1 -0.28706704819161E+01  0.37898639714759E+01 -0.14086401735200E+01
H     13     1 -0.23372315724931E+01  0.38956899579096E+01  0.18757317563824E+01
H     14     1  0.20233182258659E+01  0.34795849503465E+01  0.11669443803739E+01
H     15     1  0.14612392027728E+01  0.33547346785862E+01 -0.21107985568490E+01
H     16     1  0.49426996669223E+01  0.38904425166215E+00 -0.25163277708688E+01
H     17     1  0.49375895208683E+01 -0.24607888506087E+01 -0.69153253875305E+00
H     18     1  0.14489908432327E+01 -0.33247604708950E+01  0.21657662367169E+01
H     19     1  0.20165513097687E+01 -0.40165050018428E+00  0.36518585837573E+01
H     20     1 -0.23437750696098E+01  0.80038586712541E-01  0.43192914997249E+01
H     21     1 -0.28826755209681E+01 -0.28575287701639E+01  0.28485271961732E+01
H     22     1  0.76420661319822E+00 -0.34913578220015E+01 -0.23648609241392E+01
H     23     1  0.76903832600828E+00 -0.68848657302471E+00 -0.41593157410993E+01
H     24     1 -0.35620072792223E+01 -0.24238760140493E+00 -0.34745070501423E+01
H     25     1 -0.35667557862323E+01 -0.30455693563641E+01 -0.16793356347570E+01
[GTO]
           1 0
 s           4   1.00000000000000     
   67.8191594740697      -0.201850789245403     
   11.6790204412661      -0.246385510808000     
  0.938459125048083       0.394518855091218     
  0.357670001280168       0.157234426148285     
 p           4   1.00000000000000     
   9.58240403549692        1.37296780219284     
   2.48457427772447        1.27052889614703     
  0.875889317934415       0.666458841672068     
  0.348706630431394       0.100543312761176     
 
           2 0
 s           4   1.00000000000000     
   63.5940244669410      -0.192343884147216     
   10.9514172315237      -0.234781079249537     
  0.879993102573770       0.375937539017009     
  0.335387152965211       0.149828892718628     
 p           4   1.00000000000000     
   7.29650404814951       0.976586663156674     
   1.89187454507126       0.903722267303458     
  0.666944321108241       0.474049584615364     
  0.265522026741309       7.151606771501186E-002
 
           3 0
 s           4   1.00000000000000     
   51.0493630955799      -0.163120632101274     
   8.79112274068875      -0.199110245810007     
  0.706404222589298       0.318820477536558     
  0.269228134134116       0.127065041842404     
 p           4   1.00000000000000     
   5.82636561408000       0.737164515452096     
   1.51068960187200       0.682163716148503     
  0.532564832880000       0.357830539292537     
  0.212023236906000       5.398303027584788E-002
 
           4 0
 s           4   1.00000000000000     
   51.0493630955799      -0.163120632101274     
   8.79112274068875      -0.199110245810007     
  0.706404222589298       0.318820477536558     
  0.269228134134116       0.127065041842404     
 p           4   1.00000000000000     
   5.82636561408000       0.737164515452096     
   1.51068960187200       0.682163716148503     
  0.532564832880000       0.357830539292537     
  0.212023236906000       5.398303027584788E-002
 
           5 0
 s           4   1.00000000000000     
   63.5940244669410      -0.192343884147216     
   10.9514172315237      -0.234781079249537     
  0.879993102573770       0.375937539017009     
  0.335387152965211       0.149828892718628     
 p           4   1.00000000000000     
   7.29650404814951       0.976586663156674     
   1.89187454507126       0.903722267303458     
  0.666944321108241       0.474049584615364     
  0.265522026741309       7.151606771501186E-002
 
           6 0
 s           4   1.00000000000000     
   51.0493630955799      -0.163120632101274     
   8.79112274068875      -0.199110245810007     
  0.706404222589298       0.318820477536558     
  0.269228134134116       0.127065041842404     
 p           4   1.00000000000000     
   5.82636561408000       0.737164515452096     
   1.51068960187200       0.682163716148503     
  0.532564832880000       0.357830539292537     
  0.212023236906000       5.398303027584788E-002
 
           7 0
 s           4   1.00000000000000     
   9.34674866189868      -0.125552785052236     
   2.63274953955161      -0.254029831967196     
  0.472092932487140       0.305184566430756     
  0.232271649766237       8.559661830788402E-002
 p           4   1.00000000000000     
   8.96653868620652      -0.317209215069455     
  0.926601749794952       0.357031126383567     
  0.418792332287928       0.280771537007085     
  0.202453454537036       4.152131922185704E-002
 d           3   1.00000000000000     
   3.20597745654841        2.13231494102881     
   1.00523897559031       0.971375176087545     
  0.391565355448865       0.129419082352652     
 
           8 0
 s           4   1.00000000000000     
   51.0493630955799      -0.163120632101274     
   8.79112274068875      -0.199110245810007     
  0.706404222589298       0.318820477536558     
  0.269228134134116       0.127065041842404     
 p           4   1.00000000000000     
   5.82636561408000       0.737164515452096     
   1.51068960187200       0.682163716148503     
  0.532564832880000       0.357830539292537     
  0.212023236906000       5.398303027584788E-002
 
           9 0
 s           4   1.00000000000000     
   51.0493630955799      -0.163120632101274     
   8.79112274068875      -0.199110245810007     
  0.706404222589298       0.318820477536558     
  0.269228134134116       0.127065041842404     
 p           4   1.00000000000000     
   5.82636561408000       0.737164515452096     
   1.51068960187200       0.682163716148503     
  0.532564832880000       0.357830539292537     
  0.212023236906000       5.398303027584788E-002
 
          10 0
 s           4   1.00000000000000     
   51.0493630955799      -0.163120632101274     
   8.79112274068875      -0.199110245810007     
  0.706404222589298       0.318820477536558     
  0.269228134134116       0.127065041842404     
 p           4   1.00000000000000     
   5.82636561408000       0.737164515452096     
   1.51068960187200       0.682163716148503     
  0.532564832880000       0.357830539292537     
  0.212023236906000       5.398303027584788E-002
 
          11 0
 s           4   1.00000000000000     
   51.0493630955799      -0.163120632101274     
   8.79112274068875      -0.199110245810007     
  0.706404222589298       0.318820477536558     
  0.269228134134116       0.127065041842404     
 p           4   1.00000000000000     
   5.82636561408000       0.737164515452096     
   1.51068960187200       0.682163716148503     
  0.532564832880000       0.357830539292537     
  0.212023236906000       5.398303027584788E-002
 
          12 0
 s           3   1.00000000000000     
   3.37022769753360       0.273591105889083     
  0.613891182214980       0.264605406538605     
  0.166142911484160       8.246594753408230E-002
 
          13 0
 s           3   1.00000000000000     
   3.37022769753360       0.273591105889083     
  0.613891182214980       0.264605406538605     
  0.166142911484160       8.246594753408230E-002
 
          14 0
 s           3   1.00000000000000     
   3.37022769753360       0.273591105889083     
  0.613891182214980       0.264605406538605     
  0.166142911484160       8.246594753408230E-002
 
          15 0
 s           3   1.00000000000000     
   3.37022769753360       0.273591105889083     
  0.613891182214980       0.264605406538605     
  0.166142911484160       8.246594753408230E-002
 
          16 0
 s           3   1.00000000000000     
   3.37022769753360       0.273591105889083     
  0.613891182214980       0.264605406538605     
  0.166142911484160       8.246594753408230E-002
 
          17 0
 s           3   1.00000000000000     
   3.37022769753360       0.273591105889083     
  0.613891182214980       0.264605406538605     
  0.166142911484160       8.246594753408230E-002
 
          18 0
 s           3   1.00000000000000     
   3.37022769753360       0.273591105889083     
  0.613891182214980       0.264605406538605     
  0.166142911484160       8.246594753408230E-002
 
          19 0
 s           3   1.00000000000000     
   3.37022769753360       0.273591105889083     
  0.613891182214980       0.264605406538605     
  0.166142911484160       8.246594753408230E-002
 
          20 0
 s           3   1.00000000000000     
   3.37022769753360       0.273591105889083     
  0.613891182214980       0.264605406538605     
  0.166142911484160       8.246594753408230E-002
 
          21 0
 s           3   1.00000000000000     
   3.37022769753360       0.273591105889083     
  0.613891182214980       0.264605406538605     
  0.166142911484160       8.246594753408230E-002
 
          22 0
 s           3   1.00000000000000     
   3.37022769753360       0.273591105889083     
  0.613891182214980       0.264605406538605     
  0.166142911484160       8.246594753408230E-002
 
          23 0
 s           3   1.00000000000000     
   3.37022769753360       0.273591105889083     
  0.613891182214980       0.264605406538605     
  0.166142911484160       8.246594753408230E-002
 
          24 0
 s           3   1.00000000000000     
   3.37022769753360       0.273591105889083     
  0.613891182214980       0.264605406538605     
  0.166142911484160       8.246594753408230E-002
 
          25 0
 s           3   1.00000000000000     
   3.37022769753360       0.273591105889083     
  0.613891182214980       0.264605406538605     
  0.166142911484160       8.246594753408230E-002
 
[MO]
Sym=     1a
Ene=   -1.33366898930110     
Spin= Alpha
Occup=     2.00000000
           1  4.538386646616947E-006
           2 -3.464480579340627E-006
           3  9.539226849043731E-008
           4  1.390822363351885E-007
           5 -2.630488296178458E-005
           6  2.856561569814246E-005
           7 -1.715380321042106E-005
           8 -2.671176186769319E-005
           9 -1.664036423206712E-004
          10 -3.106015329038284E-004
          11  2.028382488864747E-005
          12  4.726473107363125E-005
          13 -1.746334104916845E-003
          14 -2.995784087099162E-003
          15  6.152004117445557E-004
          16 -1.243263623879563E-003
          17 -2.514871821632439E-003
          18 -9.144632614435979E-003
          19 -2.081944181182395E-003
          20 -3.277064862156195E-003
          21 -5.189625793419994E-002
          22 -3.467411073440437E-002
          23 -3.259291766786686E-002
          24 -5.099876200274774E-002
          25 -0.971161369335993     
          26  7.397898465983239E-002
          27  1.152018042007022E-002
          28  1.819644658923306E-002
          29 -4.738132494159099E-003
          30  1.845877591354475E-003
          31  2.892254902804624E-003
          32  2.551578601532572E-004
          33  3.798096880379278E-004
          34  1.309588364402432E-003
          35 -1.746154405834153E-003
          36 -2.999104617471082E-003
          37 -1.378893948645263E-003
          38  3.360728718391728E-005
          39 -1.663840892049202E-004
          40 -3.105314888288496E-004
          41  3.525763270465740E-005
          42  3.771104135441733E-005
          43 -1.386532185916129E-004
          44 -1.041150065407056E-003
          45 -3.103183604990650E-004
          46 -4.875723277086171E-004
          47  4.867906831512584E-007
          48 -7.561002826670891E-005
          49 -1.413985514795783E-005
          50 -2.229903538872381E-005
          51 -1.264192913259918E-004
          52 -1.257626848277511E-004
          53  3.147953356509762E-003
          54  4.165181672108408E-004
          55  6.959057816413102E-003
          56  6.959150828963332E-003
          57  4.161267443173438E-004
          58  3.147901162614633E-003
          59 -1.257385572054371E-004
          60 -1.264038431570789E-004
          61 -8.000664548130380E-004
          62 -7.999412734449023E-004
          63 -3.302953489886852E-005
          64 -3.303202056473806E-005
Sym=     2a
Ene=   -1.18918323344793     
Spin= Alpha
Occup=     2.00000000
           1 -0.846367825665360     
           2 -7.108035892770101E-003
           3  9.612584945050186E-004
           4  1.481346280435843E-003
           5 -0.160041990802475     
           6  0.258762671015024     
           7 -2.460638257954461E-002
           8 -3.770562543752169E-002
           9 -6.866152160221584E-003
          10  2.646071576683066E-002
          11  8.506308696497170E-003
          12 -4.306797953843824E-003
          13  5.183546762753480E-003
          14 -2.349711606919493E-003
          15 -3.021918366743432E-003
          16  4.557662910337600E-004
          17  5.880933643391560E-003
          18 -8.275316639975043E-003
          19  7.534777806565756E-004
          20  1.153595844438534E-003
          21 -3.877098062749921E-004
          22  2.238513031458956E-005
          23  3.072714729750527E-005
          24  4.804677909381569E-005
          25  3.477642775506997E-004
          26 -2.428570980050674E-005
          27  1.253497362201772E-005
          28  1.951799736749374E-005
          29  1.604435566467174E-005
          30 -9.425695623335332E-006
          31 -6.618660041336411E-006
          32  9.728431808345832E-006
          33  1.528212287504402E-005
          34  3.575921149075244E-006
          35  5.183540751095664E-003
          36 -2.341257860971134E-003
          37  1.684532035074642E-003
          38 -2.557677686863290E-003
          39 -6.866108166331882E-003
          40  2.643209577121600E-002
          41 -7.537120357526093E-003
          42  5.967109266092407E-003
          43  5.396793009530853E-003
          44 -1.542798445521073E-003
          45  1.938487210495135E-003
          46  3.023267895168935E-003
          47 -7.195017422282006E-003
          48  2.405049984496881E-002
          49 -8.572435638291288E-003
          50 -1.331964074992060E-002
          51  7.180123049214535E-004
          52  7.571518681188639E-004
          53 -2.722199707993516E-004
          54 -2.835177227847718E-004
          55  9.530349807603367E-006
          56  9.528874053730517E-006
          57 -2.834496317448138E-004
          58 -2.722785910568964E-004
          59  7.573814671672760E-004
          60  7.177817582243458E-004
          61 -2.486042481058984E-004
          62 -2.485384632081359E-004
          63  6.425437080647886E-004
          64  6.428100403326103E-004
Sym=     3a
Ene=   -1.07497283539278     
Spin= Alpha
Occup=     2.00000000
           1  3.704791770030331E-002
           2 -3.506950336709676E-002
           3  4.222682487762866E-003
           4  6.496803713473141E-003
           5 -0.395099782685218     
           6 -0.198379160213785     
           7  2.379312029885229E-002
           8  3.660462822206716E-002
           9 -0.166136117019962     
          10 -2.032266723182294E-002
          11  0.120915338274870     
          12  6.821744954511311E-004
          13 -0.135511935520729     
          14  4.739295050310131E-002
          15  8.580420833427121E-002
          16 -8.191991939423843E-003
          17 -0.272173943541452     
          18  0.145951578281858     
          19 -6.577642022657375E-003
          20 -9.864316532507640E-003
          21 -1.327603157040958E-002
          22  2.895547088387213E-002
          23 -1.765502964980933E-003
          24 -2.676241290581080E-003
          25 -5.533107575512222E-004
          26  2.825937548576015E-003
          27  1.035255057984154E-004
          28  1.696270068577400E-004
          29  2.868960402158680E-005
          30  2.393149152078626E-004
          31 -2.680045192294494E-004
          32 -2.886398111400531E-004
          33 -4.526179844551251E-004
          34 -6.338311472265920E-004
          35 -0.135512219120203     
          36  4.716036154196368E-002
          37 -4.347037950825011E-002
          38  7.457739782124977E-002
          39 -0.166135195554375     
          40 -2.062593982105437E-002
          41 -4.991059323408319E-002
          42  0.110079163083281     
          43 -0.153643152766345     
          44  2.316437055035875E-002
          45 -5.487485609908504E-002
          46 -8.564267187054288E-002
          47 -0.179042259616740     
          48 -5.666171277138311E-002
          49 -6.133630870394598E-002
          50 -9.593457230409586E-002
          51 -1.899728389043218E-002
          52 -1.839616566456416E-002
          53 -1.315139314917696E-002
          54 -1.455780987159331E-002
          55 -9.516719935899341E-004
          56 -9.516873478859321E-004
          57 -1.455921257018412E-002
          58 -1.315035894261631E-002
          59 -1.839716377777352E-002
          60 -1.899582836603905E-002
          61 -1.751060361714001E-002
          62 -1.751183968570089E-002
          63 -2.092978239018179E-002
          64 -2.093104133418677E-002
Sym=     4a
Ene=   -1.04550352261512     
Spin= Alpha
Occup=     2.00000000
           1  0.123145414891650     
           2 -8.489824691419183E-002
           3  6.570759671953206E-003
           4  1.002482902565196E-002
           5 -0.322736609387078     
           6 -9.216267909154488E-002
           7  1.398644799856068E-003
           8  1.927883087302428E-003
           9 -0.105991008044217     
          10  3.672435524823205E-002
          11  7.179259218669667E-002
          12 -1.170529397440485E-002
          13  0.104573048276479     
          14  6.190712974337573E-002
          15 -9.926062520895307E-002
          16 -1.445094837995841E-002
          17  0.512869542852215     
          18  4.195736058050197E-002
          19 -3.171297891518804E-002
          20 -4.940966536217424E-002
          21  0.167591568556385     
          22 -0.144579249753936     
          23  2.950128999857209E-003
          24  4.202587980222910E-003
          25 -2.987235256544386E-002
          26 -2.147442833413032E-002
          27 -8.310687823226281E-003
          28 -1.303928703906008E-002
          29 -2.727011557655548E-004
          30 -1.227301379664464E-003
          31  1.500002535430018E-003
          32  1.846076739628469E-003
          33  2.892239553355688E-003
          34  3.405503407497586E-003
          35  0.104574699400563     
          36  6.213625948072368E-002
          37  2.825558326992935E-002
          38 -9.609836905478786E-002
          39 -0.105991378365745     
          40  3.652409726502560E-002
          41 -4.075739867921475E-002
          42  6.037111650800207E-002
          43  0.161191769124208     
          44  9.852916372301203E-002
          45  5.086969134976332E-002
          46  7.972633532642567E-002
          47 -8.354360383289816E-002
          48  2.870986623826436E-002
          49 -4.124984364417949E-002
          50 -6.433462553244371E-002
          51 -1.600471121698518E-002
          52 -1.732757215045081E-002
          53  1.457093317722626E-002
          54  2.023162094279948E-002
          55  2.576480768403818E-002
          56  2.576483353988065E-002
          57  2.023176419982249E-002
          58  1.457201926494578E-002
          59 -1.732780182186238E-002
          60 -1.600472786390727E-002
          61  3.059139457926272E-002
          62  3.059029468338514E-002
          63 -1.328445907161066E-002
          64 -1.328445816100275E-002
Sym=     5a
Ene=   -1.02940703284109     
Spin= Alpha
Occup=     2.00000000
           1 -1.131712173116550E-002
           2 -1.151638462454515E-002
           3 -6.052110084252245E-002
           4 -9.454317185337530E-002
           5  1.279884112014372E-002
           6 -7.361261982680632E-002
           7 -0.219857961859171     
           8 -0.343539097083192     
           9 -0.167216443394303     
          10 -2.024625248176567E-002
          11  4.422618641365500E-002
          12 -7.432583227697404E-002
          13 -0.135335537894327     
          14  2.212011731475516E-002
          15  3.307732654531653E-002
          16 -5.476233883647893E-002
          17 -5.488429691624742E-002
          18 -3.369887601150484E-002
          19 -0.118085441557424     
          20 -0.184498100740994     
          21 -5.550164821735623E-003
          22  9.319502926564737E-003
          23 -1.612595903268299E-002
          24 -2.515606072858987E-002
          25  2.081709201141370E-002
          26  1.033319640349080E-002
          27  2.237656458321358E-003
          28  3.523764019771361E-003
          29 -6.996644386401928E-004
          30  3.239032547218471E-004
          31  3.757611839183456E-004
          32 -6.895765740017683E-005
          33 -1.108931281428779E-004
          34  6.551650430678392E-005
          35 -0.135314498698381     
          36  2.194267389546693E-002
          37 -6.363878825859527E-002
          38  7.152603488727095E-003
          39 -0.167223651204448     
          40 -2.047311622339537E-002
          41 -8.595704322719802E-002
          42  9.049302396489337E-003
          43  0.237293570577176     
          44 -6.204125229406949E-002
          45  2.539304276367038E-002
          46  3.950004893999173E-002
          47  0.350754512022006     
          48  3.207463797532474E-002
          49  4.797833436582994E-002
          50  7.499970109517058E-002
          51 -1.520884971921251E-002
          52 -5.219306443237215E-002
          53 -3.475774921724505E-002
          54 -1.331283259200827E-002
          55  4.325443491651682E-003
          56  4.326071501077813E-003
          57 -1.330658212155407E-002
          58 -3.475242342345174E-002
          59 -5.219611377149420E-002
          60 -1.521312292790798E-002
          61  4.809917168929351E-002
          62  4.809789433957944E-002
          63  7.283011077127190E-002
          64  7.282890858708724E-002
Sym=     6a
Ene=   -1.02837943502490     
Spin= Alpha
Occup=     2.00000000
           1 -3.428076352296763E-007
           2  1.729763919739045E-004
           3  9.689759567202288E-002
           4 -6.204884021307532E-002
           5 -3.910229681535475E-008
           6  6.303607469497330E-004
           7  0.353748476673662     
           8 -0.226525041239200     
           9  0.296493199240047     
          10 -2.705455021365219E-004
          11 -8.512721637653835E-002
          12 -4.380986060085997E-002
          13  0.211225439686265     
          14 -6.192244727458733E-002
          15 -4.055799307820979E-002
          16 -2.024856700425766E-002
          17 -1.580886621750630E-006
          18  3.388351636188448E-004
          19  0.189942314043569     
          20 -0.121633929969130     
          21 -4.092840330800610E-008
          22  5.263468021179717E-005
          23  2.919102965241395E-002
          24 -1.869302358816627E-002
          25  1.116494012583276E-006
          26  6.931271352354240E-006
          27  3.594446113527288E-003
          28 -2.301319236470277E-003
          29 -3.303131258903284E-007
          30  3.566759182931916E-004
          31 -3.563456051673012E-004
          32 -1.029021635158071E-004
          33  6.669782018412411E-005
          34  1.894190480863285E-004
          35 -0.211240142670934     
          36  6.185101960731566E-002
          37  1.246328868844303E-003
          38  4.540814253196954E-002
          39 -0.296487710548609     
          40  1.252740377850645E-004
          41  4.188967245536820E-003
          42  9.565057905653147E-002
          43  1.392331673447512E-005
          44  9.535810979485989E-005
          45  5.328314168977869E-002
          46 -3.411227557522462E-002
          47 -5.281702042702078E-006
          48  1.390883559045209E-004
          49  7.721433808604523E-002
          50 -4.945073683079042E-002
          51  7.213073784526179E-002
          52  4.883977063673854E-002
          53  3.226933714875152E-002
          54  4.809699790631163E-002
          55  8.300318077441970E-003
          56 -8.299835241491915E-003
          57 -4.810038805081029E-002
          58 -3.227380298754222E-002
          59 -4.883602544989669E-002
          60 -7.212898630673967E-002
          61 -1.594237377081555E-002
          62  1.595052811979570E-002
          63  2.325212441344717E-002
          64 -2.325720160546692E-002
Sym=     7a
Ene=   -1.00354442215293     
Spin= Alpha
Occup=     2.00000000
           1 -0.225880099562682     
           2  0.242718086575835     
           3  4.712124052351942E-003
           4  8.034395707415123E-003
           5  0.299318543115121     
           6 -4.476584792404305E-002
           7  7.921863456293624E-002
           8  0.123586488863323     
           9  2.094286003460954E-002
          10 -0.125241732186226     
          11 -5.606263990469251E-002
          12  4.022712135466282E-002
          13 -0.176104201403065     
          14  5.507771018716348E-002
          15  4.057394255488547E-002
          16 -3.882826034102872E-002
          17  7.371043187052632E-002
          18  0.325619395349575     
          19 -0.135092146100270     
          20 -0.210055714831742     
          21  0.284413334846343     
          22 -0.142858979792560     
          23 -1.891603725276953E-002
          24 -2.993972042835239E-002
          25 -3.624191230568819E-002
          26 -2.464833132923538E-002
          27 -1.918000896113655E-002
          28 -3.002292443136228E-002
          29 -1.097947174991358E-005
          30 -1.976198686533189E-003
          31  1.987178158283102E-003
          32  3.913798635014161E-003
          33  6.127438586849689E-003
          34  4.940544474313379E-003
          35 -0.176090104797075     
          36  5.491313927359507E-002
          37 -5.238804263963369E-002
          38  2.068352712111271E-002
          39  2.094795335190764E-002
          40 -0.125034173107620     
          41  6.031285928862306E-002
          42 -3.429328760518751E-002
          43  1.906599388048007E-002
          44  0.130927887776516     
          45 -7.571051053563056E-003
          46 -1.145707476691409E-002
          47 -8.485341338448389E-002
          48 -4.055746137472568E-002
          49  1.680754372105606E-002
          50  2.613840253171104E-002
          51  1.312840071195625E-003
          52  1.242495032911984E-002
          53 -4.145291474976142E-002
          54 -2.440706501882947E-002
          55  6.712278220453663E-002
          56  6.712336300895802E-002
          57 -2.440438827695158E-002
          58 -4.144712007580691E-002
          59  1.242470945659291E-002
          60  1.316196071809406E-003
          61  1.993458399301803E-002
          62  1.992865904125541E-002
          63 -2.346058892144180E-002
          64 -2.346010677549960E-002
Sym=     8a
Ene=   -1.00055545182342     
Spin= Alpha
Occup=     2.00000000
           1 -0.103714808790232     
           2  9.049221057477634E-002
           3 -7.207703223226757E-002
           4 -0.112347637617849     
           5  0.127529927382855     
           6 -9.010062787129747E-002
           7 -0.154792386688201     
           8 -0.242089026383714     
           9 -8.290087767120408E-002
          10  1.264582619099362E-002
          11  8.477757123411280E-003
          12 -4.266218400070791E-002
          13  9.783960160833807E-002
          14  9.042966589348903E-002
          15 -4.401704157025946E-002
          16  4.663725471591427E-002
          17  9.525386904382983E-002
          18  0.234128919633584     
          19  0.185082779685511     
          20  0.289825911371396     
          21  0.129105627317521     
          22 -7.548318338204725E-002
          23  3.605206750740948E-002
          24  5.611747229027603E-002
          25 -6.521873662566763E-002
          26 -3.967922552520171E-002
          27 -1.547324439768511E-002
          28 -2.427276660135900E-002
          29  2.275901952801703E-003
          30 -1.911600453646165E-003
          31 -3.643014991555385E-004
          32  2.008696328661594E-003
          33  3.153912418383775E-003
          34  1.925089766674033E-003
          35  9.790871113639815E-002
          36  9.063695852729378E-002
          37  6.054202849115894E-002
          38 -2.033778920486758E-002
          39 -8.295940007337127E-002
          40  1.260152082604334E-002
          41 -4.233544254410309E-002
          42 -1.010432360136341E-002
          43 -0.347857686629388     
          44 -5.095813667541362E-002
          45 -3.261388759359075E-002
          46 -5.106293736712073E-002
          47  0.117590050853935     
          48 -0.156684213227261     
          49  6.833466689802772E-002
          50  0.106263315023216     
          51 -1.123908655540641E-002
          52 -3.606456012556811E-002
          53  4.449569565298350E-002
          54  1.211916639878799E-002
          55  1.381798051231107E-002
          56  1.382575709954161E-002
          57  1.213696395353202E-002
          58  4.451111013055079E-002
          59 -3.607781251622303E-002
          60 -1.126047206614693E-002
          61 -9.083022925246478E-002
          62 -9.083594338179822E-002
          63  3.632959438185438E-002