13
 energy: -23.161098899770 gnorm: 0.000542869544 xtb: 6.7.1 (edcfbbe)
O            3.76036819725608        0.47035108648237       -0.14837348628430
I            2.89656262745514       -1.11902364440507       -0.29350235417926
C            0.87271261848671       -0.48143070843355       -0.10731891945372
C           -0.17212619457581       -1.38467339327696       -0.14123666789715
C           -1.46317452854631       -0.89978026861970       -0.01103127401306
C           -1.68861989473350        0.45859279379028        0.14825864759876
C           -0.62411793554469        1.34527276163616        0.17916473324663
C            0.67144497048045        0.87453995653232        0.05066162088158
H            0.01359181309683       -2.44032780392367       -0.26518250836123
H           -2.29424733710670       -1.58836609685361       -0.03385903309843
H           -2.69858182712129        0.82618718381678        0.24883308450867
H           -0.79963108317502        2.40302533704606        0.30305816393545
H            1.52581857402824        1.53563279620913        0.07052799311611
