[Molden Format]
[Title]
[Atoms] AU
O      1     8  0.94021590175332E+01  0.10773675146656E+02  0.21125425029764E+01
N      2     7  0.73046798513933E+01  0.10664813708928E+02  0.11833747043410E+01
O      3     8  0.62031222286038E+01  0.12455816023462E+02  0.25003955134225E+00
C      4     6  0.60482667367023E+01  0.82747857378389E+01  0.11759923143476E+01
C      5     6  0.72578644214073E+01  0.61477682654597E+01  0.22175696023270E+01
C      6     6  0.60825826891095E+01  0.38559003521356E+01  0.21958395729018E+01
C      7     6  0.36269250851611E+01  0.35509395350695E+01  0.11404687731167E+01
C      8     6  0.24150691399281E+01  0.57515838049438E+01  0.10976289882340E+00
C      9     6  0.36632091317250E+01  0.80744500191922E+01  0.14137845000238E+00
C     10     6 -0.34989793162544E-01  0.55334437883971E+01 -0.96786253138905E+00
N     11     7 -0.12991512263926E+01  0.34459788245861E+01 -0.11334904323831E+01
Co    12    27 -0.41554398477339E+00  0.26919946638296E+00 -0.89551914369859E-02
N     13     7 -0.31637008664390E+01 -0.90459729309231E+00 -0.17926775652553E+01
C     14     6 -0.40221441688201E+01 -0.31933480583427E+01 -0.19210122183923E+01
C     15     6 -0.30531829997377E+01 -0.52689625327781E+01 -0.52081423095369E+00
C     16     6 -0.40993256002355E+01 -0.76744303185667E+01 -0.79604376683502E+00
C     17     6 -0.31654356599950E+01 -0.96827306154526E+01  0.57959429537892E+00
N     18     7 -0.42361256297067E+01 -0.12139755774740E+02  0.25042786370131E+00
O     19     8 -0.59581207810811E+01 -0.12362580769961E+02 -0.12574461684591E+01
O     20     8 -0.33669885752159E+01 -0.13865912119511E+02  0.14914137421248E+01
C     21     6 -0.11694316120238E+01 -0.93358254870296E+01  0.23021482823368E+01
C     22     6 -0.12801559283910E+00 -0.70009489349482E+01  0.26163661561794E+01
C     23     6 -0.99827172595827E+00 -0.48781966616069E+01  0.12111141403523E+01
O     24     8  0.13864932328982E-01 -0.27160964875551E+01  0.15339922402685E+01
C     25     6 -0.43473305971069E+01  0.98261377949537E+00 -0.34029904463124E+01
C     26     6 -0.38141064462266E+01  0.35592927184386E+01 -0.22319769486108E+01
O     27     8  0.25921661927005E+01  0.13758107070101E+01  0.10923813622204E+01
H     28     1  0.91195699981095E+01  0.63849137177404E+01  0.30170760609415E+01
H     29     1  0.69743800771441E+01  0.22005198553583E+01  0.29817941492192E+01
H     30     1  0.27774733711331E+01  0.97396257080638E+01 -0.64110554373985E+00
H     31     1 -0.87072407527130E+00  0.72671949729358E+01 -0.17041802314691E+01
H     32     1 -0.56076953389999E+01 -0.35944702493075E+01 -0.31741725750179E+01
H     33     1 -0.56400426423641E+01 -0.79936913249686E+01 -0.20973072393353E+01
H     34     1 -0.49922239907493E+00 -0.10953092710299E+02  0.33494009776124E+01
H     35     1  0.14069398642940E+01 -0.66920917548146E+01  0.39208712923306E+01
H     36     1 -0.63796820226448E+01  0.64374194447711E+00 -0.35983404688678E+01
H     37     1 -0.34793471795494E+01  0.87954702333804E+00 -0.52813890927727E+01
H     38     1 -0.51729795129138E+01  0.39265343937317E+01 -0.71198602121417E+00
H     39     1 -0.39667143067617E+01  0.50766611072071E+01 -0.36317982603992E+01
[GTO]
           1 0
 s           4   1.00000000000000     
   69.1379619061966      -0.204787563700778     
   11.9061291327073      -0.249970231368273     
  0.956708277443407       0.400258802406396     
  0.364625204960737       0.159522066676936     
 p           4   1.00000000000000     
   8.21241932577816        1.13215567991868     
   2.12935769970981        1.04768407822548     
  0.750664482023609       0.549565082171590     
  0.298852465432831       8.290848659276662E-002
 
           2 0
 s           4   1.00000000000000     
   63.5940244669410      -0.192343884147216     
   10.9514172315237      -0.234781079249537     
  0.879993102573770       0.375937539017009     
  0.335387152965211       0.149828892718628     
 p           4   1.00000000000000     
   7.29650404814951       0.976586663156674     
   1.89187454507126       0.903722267303458     
  0.666944321108241       0.474049584615364     
  0.265522026741309       7.151606771501186E-002
 
           3 0
 s           4   1.00000000000000     
   69.1379619061966      -0.204787563700778     
   11.9061291327073      -0.249970231368273     
  0.956708277443407       0.400258802406396     
  0.364625204960737       0.159522066676936     
 p           4   1.00000000000000     
   8.21241932577816        1.13215567991868     
   2.12935769970981        1.04768407822548     
  0.750664482023609       0.549565082171590     
  0.298852465432831       8.290848659276662E-002
 
           4 0
 s           4   1.00000000000000     
   51.0493630955799      -0.163120632101274     
   8.79112274068875      -0.199110245810007     
  0.706404222589298       0.318820477536558     
  0.269228134134116       0.127065041842404     
 p           4   1.00000000000000     
   5.82636561408000       0.737164515452096     
   1.51068960187200       0.682163716148503     
  0.532564832880000       0.357830539292537     
  0.212023236906000       5.398303027584788E-002
 
           5 0
 s           4   1.00000000000000     
   51.0493630955799      -0.163120632101274     
   8.79112274068875      -0.199110245810007     
  0.706404222589298       0.318820477536558     
  0.269228134134116       0.127065041842404     
 p           4   1.00000000000000     
   5.82636561408000       0.737164515452096     
   1.51068960187200       0.682163716148503     
  0.532564832880000       0.357830539292537     
  0.212023236906000       5.398303027584788E-002
 
           6 0
 s           4   1.00000000000000     
   51.0493630955799      -0.163120632101274     
   8.79112274068875      -0.199110245810007     
  0.706404222589298       0.318820477536558     
  0.269228134134116       0.127065041842404     
 p           4   1.00000000000000     
   5.82636561408000       0.737164515452096     
   1.51068960187200       0.682163716148503     
  0.532564832880000       0.357830539292537     
  0.212023236906000       5.398303027584788E-002
 
           7 0
 s           4   1.00000000000000     
   51.0493630955799      -0.163120632101274     
   8.79112274068875      -0.199110245810007     
  0.706404222589298       0.318820477536558     
  0.269228134134116       0.127065041842404     
 p           4   1.00000000000000     
   5.82636561408000       0.737164515452096     
   1.51068960187200       0.682163716148503     
  0.532564832880000       0.357830539292537     
  0.212023236906000       5.398303027584788E-002
 
           8 0
 s           4   1.00000000000000     
   51.0493630955799      -0.163120632101274     
   8.79112274068875      -0.199110245810007     
  0.706404222589298       0.318820477536558     
  0.269228134134116       0.127065041842404     
 p           4   1.00000000000000     
   5.82636561408000       0.737164515452096     
   1.51068960187200       0.682163716148503     
  0.532564832880000       0.357830539292537     
  0.212023236906000       5.398303027584788E-002
 
           9 0
 s           4   1.00000000000000     
   51.0493630955799      -0.163120632101274     
   8.79112274068875      -0.199110245810007     
  0.706404222589298       0.318820477536558     
  0.269228134134116       0.127065041842404     
 p           4   1.00000000000000     
   5.82636561408000       0.737164515452096     
   1.51068960187200       0.682163716148503     
  0.532564832880000       0.357830539292537     
  0.212023236906000       5.398303027584788E-002
 
          10 0
 s           4   1.00000000000000     
   51.0493630955799      -0.163120632101274     
   8.79112274068875      -0.199110245810007     
  0.706404222589298       0.318820477536558     
  0.269228134134116       0.127065041842404     
 p           4   1.00000000000000     
   5.82636561408000       0.737164515452096     
   1.51068960187200       0.682163716148503     
  0.532564832880000       0.357830539292537     
  0.212023236906000       5.398303027584788E-002
 
          11 0
 s           4   1.00000000000000     
   63.5940244669410      -0.192343884147216     
   10.9514172315237      -0.234781079249537     
  0.879993102573770       0.375937539017009     
  0.335387152965211       0.149828892718628     
 p           4   1.00000000000000     
   7.29650404814951       0.976586663156674     
   1.89187454507126       0.903722267303458     
  0.666944321108241       0.474049584615364     
  0.265522026741309       7.151606771501186E-002
 
          12 0
 d           3   1.00000000000000     
   2.83032749122080        1.71448916425323     
  0.887453373088594       0.781034818910538     
  0.345684960408215       0.104059494248144     
 s           4   1.00000000000000     
  0.695111995148816      -6.080424419252015E-002
  0.356584305170521      -9.357916970744833E-002
  0.108935840076917       0.120409217624872     
  6.065357920736102E-002  3.064255297573086E-002
 p           4   1.00000000000000     
   2.51737953400177      -2.727839620888233E-002
  0.729880924002924      -5.782541533360520E-002
  0.127388852406668       6.998682569851342E-002
  6.250867267915186E-002  1.834609940635387E-002
 
          13 0
 s           4   1.00000000000000     
   63.5940244669410      -0.192343884147216     
   10.9514172315237      -0.234781079249537     
  0.879993102573770       0.375937539017009     
  0.335387152965211       0.149828892718628     
 p           4   1.00000000000000     
   7.29650404814951       0.976586663156674     
   1.89187454507126       0.903722267303458     
  0.666944321108241       0.474049584615364     
  0.265522026741309       7.151606771501186E-002
 
          14 0
 s           4   1.00000000000000     
   51.0493630955799      -0.163120632101274     
   8.79112274068875      -0.199110245810007     
  0.706404222589298       0.318820477536558     
  0.269228134134116       0.127065041842404     
 p           4   1.00000000000000     
   5.82636561408000       0.737164515452096     
   1.51068960187200       0.682163716148503     
  0.532564832880000       0.357830539292537     
  0.212023236906000       5.398303027584788E-002
 
          15 0
 s           4   1.00000000000000     
   51.0493630955799      -0.163120632101274     
   8.79112274068875      -0.199110245810007     
  0.706404222589298       0.318820477536558     
  0.269228134134116       0.127065041842404     
 p           4   1.00000000000000     
   5.82636561408000       0.737164515452096     
   1.51068960187200       0.682163716148503     
  0.532564832880000       0.357830539292537     
  0.212023236906000       5.398303027584788E-002
 
          16 0
 s           4   1.00000000000000     
   51.0493630955799      -0.163120632101274     
   8.79112274068875      -0.199110245810007     
  0.706404222589298       0.318820477536558     
  0.269228134134116       0.127065041842404     
 p           4   1.00000000000000     
   5.82636561408000       0.737164515452096     
   1.51068960187200       0.682163716148503     
  0.532564832880000       0.357830539292537     
  0.212023236906000       5.398303027584788E-002
 
          17 0
 s           4   1.00000000000000     
   51.0493630955799      -0.163120632101274     
   8.79112274068875      -0.199110245810007     
  0.706404222589298       0.318820477536558     
  0.269228134134116       0.127065041842404     
 p           4   1.00000000000000     
   5.82636561408000       0.737164515452096     
   1.51068960187200       0.682163716148503     
  0.532564832880000       0.357830539292537     
  0.212023236906000       5.398303027584788E-002
 
          18 0
 s           4   1.00000000000000     
   63.5940244669410      -0.192343884147216     
   10.9514172315237      -0.234781079249537     
  0.879993102573770       0.375937539017009     
  0.335387152965211       0.149828892718628     
 p           4   1.00000000000000     
   7.29650404814951       0.976586663156674     
   1.89187454507126       0.903722267303458     
  0.666944321108241       0.474049584615364     
  0.265522026741309       7.151606771501186E-002
 
          19 0
 s           4   1.00000000000000     
   69.1379619061966      -0.204787563700778     
   11.9061291327073      -0.249970231368273     
  0.956708277443407       0.400258802406396     
  0.364625204960737       0.159522066676936     
 p           4   1.00000000000000     
   8.21241932577816        1.13215567991868     
   2.12935769970981        1.04768407822548     
  0.750664482023609       0.549565082171590     
  0.298852465432831       8.290848659276662E-002
 
          20 0
 s           4   1.00000000000000     
   69.1379619061966      -0.204787563700778     
   11.9061291327073      -0.249970231368273     
  0.956708277443407       0.400258802406396     
  0.364625204960737       0.159522066676936     
 p           4   1.00000000000000     
   8.21241932577816        1.13215567991868     
   2.12935769970981        1.04768407822548     
  0.750664482023609       0.549565082171590     
  0.298852465432831       8.290848659276662E-002
 
          21 0
 s           4   1.00000000000000     
   51.0493630955799      -0.163120632101274     
   8.79112274068875      -0.199110245810007     
  0.706404222589298       0.318820477536558     
  0.269228134134116       0.127065041842404     
 p           4   1.00000000000000     
   5.82636561408000       0.737164515452096     
   1.51068960187200       0.682163716148503     
  0.532564832880000       0.357830539292537     
  0.212023236906000       5.398303027584788E-002
 
          22 0
 s           4   1.00000000000000     
   51.0493630955799      -0.163120632101274     
   8.79112274068875      -0.199110245810007     
  0.706404222589298       0.318820477536558     
  0.269228134134116       0.127065041842404     
 p           4   1.00000000000000     
   5.82636561408000       0.737164515452096     
   1.51068960187200       0.682163716148503     
  0.532564832880000       0.357830539292537     
  0.212023236906000       5.398303027584788E-002
 
          23 0
 s           4   1.00000000000000     
   51.0493630955799      -0.163120632101274     
   8.79112274068875      -0.199110245810007     
  0.706404222589298       0.318820477536558     
  0.269228134134116       0.127065041842404     
 p           4   1.00000000000000     
   5.82636561408000       0.737164515452096     
   1.51068960187200       0.682163716148503     
  0.532564832880000       0.357830539292537     
  0.212023236906000       5.398303027584788E-002
 
          24 0
 s           4   1.00000000000000     
   69.1379619061966      -0.204787563700778     
   11.9061291327073      -0.249970231368273     
  0.956708277443407       0.400258802406396     
  0.364625204960737       0.159522066676936     
 p           4   1.00000000000000     
   8.21241932577816        1.13215567991868     
   2.12935769970981        1.04768407822548     
  0.750664482023609       0.549565082171590     
  0.298852465432831       8.290848659276662E-002
 
          25 0
 s           4   1.00000000000000     
   51.0493630955799      -0.163120632101274     
   8.79112274068875      -0.199110245810007     
  0.706404222589298       0.318820477536558     
  0.269228134134116       0.127065041842404     
 p           4   1.00000000000000     
   5.82636561408000       0.737164515452096     
   1.51068960187200       0.682163716148503     
  0.532564832880000       0.357830539292537     
  0.212023236906000       5.398303027584788E-002
 
          26 0
 s           4   1.00000000000000     
   51.0493630955799      -0.163120632101274     
   8.79112274068875      -0.199110245810007     
  0.706404222589298       0.318820477536558     
  0.269228134134116       0.127065041842404     
 p           4   1.00000000000000     
   5.82636561408000       0.737164515452096     
   1.51068960187200       0.682163716148503     
  0.532564832880000       0.357830539292537     
  0.212023236906000       5.398303027584788E-002
 
          27 0
 s           4   1.00000000000000     
   69.1379619061966      -0.204787563700778     
   11.9061291327073      -0.249970231368273     
  0.956708277443407       0.400258802406396     
  0.364625204960737       0.159522066676936     
 p           4   1.00000000000000     
   8.21241932577816        1.13215567991868     
   2.12935769970981        1.04768407822548     
  0.750664482023609       0.549565082171590     
  0.298852465432831       8.290848659276662E-002
 
          28 0
 s           3   1.00000000000000     
   3.37022769753360       0.273591105889083     
  0.613891182214980       0.264605406538605     
  0.166142911484160       8.246594753408230E-002
 
          29 0
 s           3   1.00000000000000     
   3.37022769753360       0.273591105889083     
  0.613891182214980       0.264605406538605     
  0.166142911484160       8.246594753408230E-002
 
          30 0
 s           3   1.00000000000000     
   3.37022769753360       0.273591105889083     
  0.613891182214980       0.264605406538605     
  0.166142911484160       8.246594753408230E-002
 
          31 0
 s           3   1.00000000000000     
   3.37022769753360       0.273591105889083     
  0.613891182214980       0.264605406538605     
  0.166142911484160       8.246594753408230E-002
 
          32 0
 s           3   1.00000000000000     
   3.37022769753360       0.273591105889083     
  0.613891182214980       0.264605406538605     
  0.166142911484160       8.246594753408230E-002
 
          33 0
 s           3   1.00000000000000     
   3.37022769753360       0.273591105889083     
  0.613891182214980       0.264605406538605     
  0.166142911484160       8.246594753408230E-002
 
          34 0
 s           3   1.00000000000000     
   3.37022769753360       0.273591105889083     
  0.613891182214980       0.264605406538605     
  0.166142911484160       8.246594753408230E-002
 
          35 0
 s           3   1.00000000000000     
   3.37022769753360       0.273591105889083     
  0.613891182214980       0.264605406538605     
  0.166142911484160       8.246594753408230E-002
 
          36 0
 s           3   1.00000000000000     
   3.37022769753360       0.273591105889083     
  0.613891182214980       0.264605406538605     
  0.166142911484160       8.246594753408230E-002
 
          37 0
 s           3   1.00000000000000     
   3.37022769753360       0.273591105889083     
  0.613891182214980       0.264605406538605     
  0.166142911484160       8.246594753408230E-002
 
          38 0
 s           3   1.00000000000000     
   3.37022769753360       0.273591105889083     
  0.613891182214980       0.264605406538605     
  0.166142911484160       8.246594753408230E-002
 
          39 0
 s           3   1.00000000000000     
   3.37022769753360       0.273591105889083     
  0.613891182214980       0.264605406538605     
  0.166142911484160       8.246594753408230E-002
 
[MO]
Sym=     1a
Ene=  -0.764007896041816     
Spin= Alpha
Occup=     2.00000000
           1 -7.336019856807067E-006
           2  4.527821426305351E-006
           3 -1.681393219067235E-007
           4  2.105120973902676E-006
           5 -1.261776734776383E-005
           6 -1.596881712242446E-006
           7 -2.835428622398211E-006
           8 -3.754118408518310E-008
           9 -7.151076830847248E-006
          10 -2.670096111445705E-006
          11  3.550183797301470E-006
          12 -2.069921262085345E-006
          13 -1.513645570020278E-006
          14 -1.162419451767836E-006
          15 -2.009627120507141E-006
          16 -6.075626347723596E-008
          17  1.556427386896072E-007
          18 -4.292513284434204E-007
          19 -6.029711028725985E-007
          20 -6.978616204922061E-008
          21  3.632238841546613E-006
          22 -3.039432327149233E-006
          23 -9.151970301695354E-007
          24 -1.293589604794066E-006
          25  2.813095243286462E-005
          26 -8.772820214603432E-006
          27 -1.223220485342207E-005
          28 -2.366747784683512E-006
          29  1.048872976045401E-005
          30 -1.435037469052397E-006
          31 -4.753787369324267E-006
          32  2.021082603533332E-007
          33  1.156072973885920E-006
          34 -8.332647013410469E-007
          35 -1.459278989730281E-006
          36 -6.674392514780173E-008
          37  1.502589952394707E-005
          38  2.652885313250508E-007
          39 -5.577493809876451E-006
          40  1.395958911795745E-006
          41  1.588966399666507E-005
          42  1.085422620403410E-005
          43  4.972240603910037E-006
          44  6.191888155990297E-006
          45  6.457533525861153E-006
          46 -2.242534714972178E-005
          47  1.596781362386062E-005
          48 -2.384308384407913E-005
          49  6.020028202638478E-006
          50 -9.804483716645484E-006
          51  1.445884053613107E-004
          52  1.180562308508455E-005
          53  7.814959066526286E-006
          54  1.189075003485012E-005
          55  1.961254775101071E-004
          56 -2.167866901751099E-005
          57 -2.852669603346279E-004
          58  5.925784233806018E-005
          59  1.053221697610830E-003
          60  1.942149684909223E-004
          61 -4.348382037253450E-004
          62  2.915474424450727E-004
          63  2.879282909343748E-003
          64  1.113641934063262E-004
          65  2.535222008904962E-004
          66  5.155437927801542E-005
          67 -7.091168122509466E-003
          68  5.388880097004333E-004
          69  1.375498869413491E-002
          70 -3.127565567764121E-003
          71 -7.372312377811893E-002
          72  3.198590656488293E-002
          73  7.278520772603733E-002
          74  9.932512361805220E-003
          75 -0.529575938535087     
          76  5.447916617974829E-002
          77  0.128593482721627     
          78  1.568489204686213E-002
          79 -0.304219556020435     
          80 -0.153245719968760     
          81 -1.217854644632622E-003
          82 -0.139229212595943     
          83 -0.308310556098867     
          84  9.152522320937720E-002
          85 -0.144933669655586     
          86  0.120909511014391     
          87 -6.441958867759135E-003
          88  8.483638138608418E-003
          89  7.777245833082213E-003
          90  5.662402412056107E-003
          91  2.091418387267110E-003
          92  4.308814607916974E-006
          93  3.476587391198807E-004
          94 -8.462645893791135E-005
          95  2.106770071206716E-003
          96 -2.377422265744144E-004
          97 -2.597526002881829E-004
          98 -1.236721851686973E-004
          99  8.963582041878998E-004
         100 -3.199723927085426E-004
         101 -6.222227337974076E-004
         102 -1.076156579847908E-004
         103 -3.303961862320136E-005
         104 -8.016729236540254E-006
         105 -2.235405212507294E-005
         106 -2.954280039522158E-006
         107 -1.468039586159057E-005
         108  2.291411556312030E-006
         109  1.215736706689455E-005
         110  4.123753925110185E-006
         111  6.811482925967023E-005
         112  5.688930768584941E-007
         113  1.851431996823304E-005
         114 -6.552160293802829E-006
         115  4.503918203753786E-008
         116 -5.252471079696329E-007
         117  8.628031557368879E-008
         118  6.316294742418587E-007
         119  7.879504011687084E-005
         120  4.841730492469076E-004
         121  5.920209029260391E-004
         122 -7.676823474789173E-005
         123 -2.900924669762604E-006
         124 -6.888516236862622E-006
         125 -3.473682699003617E-006
         126 -2.210330660499655E-006
Sym=     2a
Ene=  -0.763549963729227     
Spin= Alpha
Occup=     2.00000000
           1  0.310234227963599     
           2 -0.190408491056797     
           3  8.493699005970023E-003
           4 -8.890290431067902E-002
           5  0.529562199217258     
           6  6.883668010136630E-002
           7  0.122636330214759     
           8  1.441450258851619E-003
           9  0.302454572093778     
          10  0.113579315504889     
          11 -0.148509772300023     
          12  8.741261224633746E-002
          13  7.370767822279686E-002
          14  3.727526424362766E-002
          15  7.090937713972612E-002
          16  9.308149647625792E-005
          17  6.512408475888841E-003
          18  1.679956450278570E-004
          19  1.255785052410838E-002
          20 -2.869640986542103E-003
          21 -2.091121634187241E-003
          22  2.908797705296515E-004
          23  2.023381981081492E-004
          24  8.292431241719154E-005
          25 -2.115365666819522E-003
          26 -5.108752474986501E-005
          27 -3.630378875629722E-004
          28  6.766423271840384E-005
          29 -2.891925787616061E-003
          30  1.147521028311845E-004
          31  2.473132554926810E-004
          32 -1.331172966075287E-006
          33  7.001098141352982E-003
          34  1.109172946994885E-002
          35  8.041043659673225E-003
          36  3.122484260748136E-003
          37 -1.057300827996939E-003
          38 -5.141007107200267E-004
          39 -5.083632961714555E-005
          40 -2.194459468473506E-004
          41 -1.977412279881400E-004
          42 -2.236058001230425E-004
          43 -1.789708417435731E-004
          44 -6.642766883771022E-005
          45 -1.155894227922892E-005
          46  2.288217657633947E-005
          47 -1.132323429711055E-005
          48  2.492069690354305E-005
          49 -6.898753587398261E-006
          50  3.911512150683811E-006
          51 -1.459520025100869E-004
          52 -6.319101115528769E-006
          53  1.406294770505567E-005
          54 -5.805117536713593E-006
          55 -1.618226512993992E-005
          56 -3.056645100095612E-006
          57  1.261570208655091E-005
          58 -4.090006807814130E-006
          59 -1.532430776012486E-005
          60 -4.282515367965851E-006
          61 -3.364956363590124E-006
          62 -2.625828337438313E-006
          63 -1.062187363740258E-005
          64 -2.617686534713053E-006
          65 -4.306790041943532E-006
          66 -1.308739949333238E-006
          67 -1.498359928529330E-006
          68 -6.127874256314111E-007
          69 -9.280688204731341E-007
          70 -3.033598565408943E-007
          71 -2.071913035689787E-006
          72  7.017569507182725E-007
          73  1.395769410884467E-006
          74  2.705866825292299E-007
          75 -1.323659788259432E-005
          76  1.405482506980890E-006
          77  3.314913126160585E-006
          78  4.058467801466046E-007
          79 -7.663290833795738E-006
          80 -3.838708034537265E-006
          81  1.005916181074102E-008
          82 -3.498074983128467E-006
          83 -7.771231445825252E-006
          84  2.318482064159706E-006
          85 -3.608765281051655E-006
          86  3.046795971094172E-006
          87 -4.663653867551484E-007
          88  2.006374919632623E-007
          89 -3.472460461837780E-007
          90  2.697126063608544E-007
          91 -3.620097271440604E-006
          92  8.196372511688476E-007
          93 -3.089022523756006E-006
          94  1.513746297217782E-006
          95 -2.874246877345428E-005
          96 -3.760312703244707E-006
          97 -1.522208303674601E-005
          98 -2.617653844384087E-007
          99 -6.913251818490087E-005
         100  1.575519533125387E-005
         101  1.086456813564148E-005
         102  6.188379395706467E-006
         103  1.471959859094475E-005
         104  3.497405947557971E-006
         105  1.149898836644862E-005
         106  5.144022263434730E-006
         107  3.360442292569335E-005
         108 -1.064376679014232E-005
         109 -2.092374693315204E-005
         110 -2.767848919425863E-006
         111 -9.068240233746642E-004
         112 -2.863110816327059E-004
         113 -6.514131660619966E-004
         114  5.711517126207966E-006
         115 -5.785904157886237E-004
         116  7.604847990669773E-005
         117 -4.976811957880083E-004
         118 -7.947595507994499E-005
         119 -7.326109366110233E-007
         120 -6.731891870437935E-008
         121 -1.663040668064532E-008
         122  5.084717722763122E-007
         123  2.200507507355538E-006
         124  3.297801594179562E-006
         125  7.488694127954872E-006
         126  2.677476935721700E-006
Sym=     3a
Ene=  -0.746081429770439     
Spin= Alpha
Occup=     2.00000000
           1  5.464349604857406E-006
           2 -1.417545767842356E-006
           3 -9.435633092074463E-007
           4 -4.173398653206469E-007
           5 -6.784583856319890E-007
           6  4.660758976095302E-006
           7 -2.493767168032248E-006
           8  2.729450751515222E-006
           9 -6.222642585959760E-006
          10 -2.833004536977549E-007
          11  2.066843813603300E-006
          12 -6.247854589900694E-007
          13 -1.456294618684549E-006
          14  1.363256417899227E-006
          15  3.763533224375332E-007
          16  5.519450022997734E-007
          17 -1.033986690439439E-006
          18  1.237889866157045E-006
          19  9.254365578297266E-007
          20  3.771047797736578E-007
          21 -9.296206518454646E-006
          22  6.861009823512837E-006
          23  2.118157058006003E-006
          24  2.806099862350200E-006
          25 -5.577895844404661E-005
          26  1.338581353039179E-005
          27  2.558192065508676E-005
          28  1.642066517449966E-006
          29 -1.759729465812415E-005
          30 -7.074384971942661E-007
          31  6.529261543261999E-006
          32 -1.466681718850364E-006
          33 -3.962078908191219E-006
          34  5.511626693476621E-007
          35  2.264219048072850E-006
          36 -2.236484598632507E-007
          37 -1.667352054322009E-005
          38 -1.021419576549913E-006
          39  2.927635926259164E-006