[Molden Format]
[Title]
[Atoms] AU
C      1     6  0.14242242433327E+02 -0.27289586627967E+01  0.53753592379602E+00
C      2     6  0.13095792999490E+02 -0.16741969508802E+00 -0.16613210222934E+00
C      3     6  0.14193958873896E+02  0.18314654242459E+01  0.16264168591622E+01
C      4     6  0.13860755535680E+02  0.44059039681673E+00 -0.28985103257941E+01
C      5     6  0.10225085434463E+02 -0.13309759638140E+00  0.18118660582703E-01
C      6     6  0.89142148936682E+01  0.20316843612446E+01 -0.52035129478376E+00
C      7     6  0.62558172917657E+01  0.21214702342544E+01 -0.40986402587956E+00
C      8     6  0.48309114006998E+01 -0.87954055839265E-01  0.22207591193191E+00
C      9     6  0.62182949640025E+01 -0.23291226311772E+01  0.83610605157442E+00
C     10     6  0.47849431739392E+01 -0.47112148577400E+01  0.15744276067108E+01
C     11     6  0.31852171550178E+01 -0.55587154544030E+01 -0.69107555335574E+00
C     12     6  0.65289291374192E+01 -0.69046334464198E+01  0.23062782947385E+01
C     13     6  0.30921266924576E+01 -0.41288772222947E+01  0.38548928290668E+01
C     14     6  0.88094667878365E+01 -0.22751074408236E+01  0.71311460444686E+00
O     15     8  0.24055012773781E+01 -0.51561683577573E-01  0.16068196248176E+00
Co    16    27  0.74498896872668E-01  0.23778864646939E+01 -0.28344013596939E+00
N     17     7  0.25717210295674E+01  0.47741745359853E+01 -0.95567816680831E+00
C     18     6  0.50201436719330E+01  0.44036486497992E+01 -0.98196295504748E+00
C     19     6  0.15841086046489E+01  0.71443505272893E+01 -0.15585329554846E+01
C     20     6  0.29191589408579E+01  0.93901351653071E+01 -0.18745861461876E+01
C     21     6  0.16428773328291E+01  0.11605336656016E+02 -0.24147643082889E+01
C     22     6 -0.96736376659656E+00  0.11619775012401E+02 -0.26206446039362E+01
C     23     6 -0.23280811738666E+01  0.94133616426345E+01 -0.22948522610242E+01
C     24     6 -0.10696690307744E+01  0.71595378933275E+01 -0.17881046071100E+01
N     25     7 -0.21806105212605E+01  0.48136205802922E+01 -0.13538500864861E+01
C     26     6 -0.45532065762882E+01  0.44209093776786E+01 -0.19530595619147E+01
C     27     6 -0.59680169744604E+01  0.22719011748603E+01 -0.12915246048399E+01
C     28     6 -0.85268090848324E+01  0.21329985493514E+01 -0.20299551566399E+01
C     29     6 -0.10029968000132E+02  0.16798052960838E+00 -0.12915008578702E+01
C     30     6 -0.12768746728702E+02 -0.13747175995315E+00 -0.21020229689401E+01
C     31     6 -0.13051286714771E+02 -0.26518169322611E+01 -0.35221530925395E+01
C     32     6 -0.13639891644426E+02  0.19895131129937E+01 -0.38595349586468E+01
C     33     6 -0.14478026038597E+02 -0.13269955065702E+00  0.24121943365231E+00
C     34     6 -0.89521317289223E+01 -0.16588355429147E+01  0.32540873010412E+00
C     35     6 -0.64873256131282E+01 -0.16385934125514E+01  0.11196248866378E+01
C     36     6 -0.54407525375581E+01 -0.36587949992533E+01  0.28787835963477E+01
C     37     6 -0.42786802627911E+01 -0.23832065399678E+01  0.52103306240243E+01
C     38     6 -0.34162210469746E+01 -0.51620114906317E+01  0.14541317324897E+01
C     39     6 -0.74655018555174E+01 -0.55116216931124E+01  0.38032469311290E+01
C     40     6 -0.48463133168543E+01  0.31731617867616E+00  0.20592825090058E+00
O     41     8 -0.24768620335233E+01  0.34772004241381E+00  0.72034769229274E+00
H     42     1  0.16289812630944E+02 -0.26279405289003E+01  0.37242769022903E+00
H     43     1  0.13580443537983E+02 -0.42098180363838E+01 -0.72434425044421E+00
H     44     1  0.13788647246983E+02 -0.32368288750160E+01  0.24765359250724E+01
H     45     1  0.13618272936995E+02  0.14423793870872E+01  0.35612314725572E+01
H     46     1  0.16248220587884E+02  0.18120286926486E+01  0.15390669536219E+01
H     47     1  0.13548708108244E+02  0.37160710001469E+01  0.11305761761504E+01
H     48     1  0.15907688936558E+02  0.40512978484877E+00 -0.30903028748694E+01
H     49     1  0.13059614985891E+02 -0.94896127042480E+00 -0.41847778879766E+01
H     50     1  0.13192295578321E+02  0.22976818475455E+01 -0.34637140145380E+01
H     51     1  0.98894082532545E+01  0.37449492316326E+01 -0.10523865112653E+01
H     52     1  0.20830591305848E+01 -0.72229392731570E+01 -0.20162868753272E+00
H     53     1  0.44043575668587E+01 -0.60214810619231E+01 -0.22824842318424E+01
H     54     1  0.19015848886913E+01 -0.40663581788144E+01 -0.12656205741673E+01
H     55     1  0.77189659053089E+01 -0.64107881374360E+01  0.39081741469654E+01
H     56     1  0.53778186179563E+01 -0.85204047218917E+01  0.28476224516858E+01
H     57     1  0.77158074106413E+01 -0.74820257619787E+01  0.73033139334546E+00
H     58     1  0.20621121805542E+01 -0.58153332610946E+01  0.44191701740666E+01
H     59     1  0.17394110512947E+01 -0.26583400210925E+01  0.33978373815723E+01
H     60     1  0.42390321800010E+01 -0.34998978765412E+01  0.54428809171027E+01
H     61     1  0.98255848212244E+01 -0.39738758555494E+01  0.11649532536970E+01
H     62     1  0.62533459798796E+01  0.59621781523342E+01 -0.15069751885735E+01
H     63     1  0.49453662374816E+01  0.94582034329917E+01 -0.16619138196062E+01
H     64     1  0.26923421850774E+01  0.13339486203154E+02 -0.26440036621181E+01
H     65     1 -0.19510385381159E+01  0.13364780915858E+02 -0.30052319440240E+01
H     66     1 -0.43638551872973E+01  0.94823942484290E+01 -0.23828048854909E+01
H     67     1 -0.55623051548626E+01  0.58747851172045E+01 -0.30009012622424E+01
H     68     1 -0.92405714884362E+01  0.36439955996236E+01 -0.31967548497439E+01
H     69     1 -0.12564429649327E+02 -0.42481035583857E+01 -0.23267357995530E+01
H     70     1 -0.11815931051527E+02 -0.26791405617751E+01 -0.51653989340766E+01
H     71     1 -0.14991445693207E+02 -0.28932570819842E+01 -0.41587449232696E+01
H     72     1 -0.13536871031864E+02  0.38136328867614E+01 -0.29186144110646E+01
H     73     1 -0.12499408308450E+02  0.20459742991921E+01 -0.55681189900787E+01
H     74     1 -0.15595037033306E+02  0.16688835612055E+01 -0.44100888442961E+01
H     75     1 -0.14243581172723E+02  0.16219799044133E+01  0.12867858433819E+01
H     76     1 -0.14035558802548E+02 -0.16943163177146E+01  0.14980499057388E+01
H     77     1 -0.16448855438184E+02 -0.30041853900434E+00 -0.32046451734080E+00
H     78     1 -0.10164712333293E+02 -0.31612776317924E+01  0.96578156479114E+00
H     79     1 -0.27580671232571E+01 -0.11199845056675E+01  0.46658336167888E+01
H     80     1 -0.35185612240136E+01 -0.38043713373013E+01  0.64866040044111E+01
H     81     1 -0.57101542047592E+01 -0.12986998697809E+01  0.62140360703469E+01
H     82     1 -0.42346810664450E+01 -0.60723909110732E+01 -0.19909576328087E+00
H     83     1 -0.19130321341438E+01 -0.39119264827990E+01  0.84333632909459E+00
H     84     1 -0.26198088167979E+01 -0.66104856763092E+01  0.26754914443586E+01
H     85     1 -0.82707275331447E+01 -0.65851945425484E+01  0.22459299872633E+01
H     86     1 -0.66030960517923E+01 -0.68495414497086E+01  0.51051121714328E+01
H     87     1 -0.89704737994467E+01 -0.45340947809871E+01  0.48067681008533E+01
[GTO]
           1 0
 s           4   1.00000000000000     
   51.0493630955799      -0.163120632101274     
   8.79112274068875      -0.199110245810007     
  0.706404222589298       0.318820477536558     
  0.269228134134116       0.127065041842404     
 p           4   1.00000000000000     
   5.82636561408000       0.737164515452096     
   1.51068960187200       0.682163716148503     
  0.532564832880000       0.357830539292537     
  0.212023236906000       5.398303027584788E-002
 
           2 0
 s           4   1.00000000000000     
   51.0493630955799      -0.163120632101274     
   8.79112274068875      -0.199110245810007     
  0.706404222589298       0.318820477536558     
  0.269228134134116       0.127065041842404     
 p           4   1.00000000000000     
   5.82636561408000       0.737164515452096     
   1.51068960187200       0.682163716148503     
  0.532564832880000       0.357830539292537     
  0.212023236906000       5.398303027584788E-002
 
           3 0
 s           4   1.00000000000000     
   51.0493630955799      -0.163120632101274     
   8.79112274068875      -0.199110245810007     
  0.706404222589298       0.318820477536558     
  0.269228134134116       0.127065041842404     
 p           4   1.00000000000000     
   5.82636561408000       0.737164515452096     
   1.51068960187200       0.682163716148503     
  0.532564832880000       0.357830539292537     
  0.212023236906000       5.398303027584788E-002
 
           4 0
 s           4   1.00000000000000     
   51.0493630955799      -0.163120632101274     
   8.79112274068875      -0.199110245810007     
  0.706404222589298       0.318820477536558     
  0.269228134134116       0.127065041842404     
 p           4   1.00000000000000     
   5.82636561408000       0.737164515452096     
   1.51068960187200       0.682163716148503     
  0.532564832880000       0.357830539292537     
  0.212023236906000       5.398303027584788E-002
 
           5 0
 s           4   1.00000000000000     
   51.0493630955799      -0.163120632101274     
   8.79112274068875      -0.199110245810007     
  0.706404222589298       0.318820477536558     
  0.269228134134116       0.127065041842404     
 p           4   1.00000000000000     
   5.82636561408000       0.737164515452096     
   1.51068960187200       0.682163716148503     
  0.532564832880000       0.357830539292537     
  0.212023236906000       5.398303027584788E-002
 
           6 0
 s           4   1.00000000000000     
   51.0493630955799      -0.163120632101274     
   8.79112274068875      -0.199110245810007     
  0.706404222589298       0.318820477536558     
  0.269228134134116       0.127065041842404     
 p           4   1.00000000000000     
   5.82636561408000       0.737164515452096     
   1.51068960187200       0.682163716148503     
  0.532564832880000       0.357830539292537     
  0.212023236906000       5.398303027584788E-002
 
           7 0
 s           4   1.00000000000000     
   51.0493630955799      -0.163120632101274     
   8.79112274068875      -0.199110245810007     
  0.706404222589298       0.318820477536558     
  0.269228134134116       0.127065041842404     
 p           4   1.00000000000000     
   5.82636561408000       0.737164515452096     
   1.51068960187200       0.682163716148503     
  0.532564832880000       0.357830539292537     
  0.212023236906000       5.398303027584788E-002
 
           8 0
 s           4   1.00000000000000     
   51.0493630955799      -0.163120632101274     
   8.79112274068875      -0.199110245810007     
  0.706404222589298       0.318820477536558     
  0.269228134134116       0.127065041842404     
 p           4   1.00000000000000     
   5.82636561408000       0.737164515452096     
   1.51068960187200       0.682163716148503     
  0.532564832880000       0.357830539292537     
  0.212023236906000       5.398303027584788E-002
 
           9 0
 s           4   1.00000000000000     
   51.0493630955799      -0.163120632101274     
   8.79112274068875      -0.199110245810007     
  0.706404222589298       0.318820477536558     
  0.269228134134116       0.127065041842404     
 p           4   1.00000000000000     
   5.82636561408000       0.737164515452096     
   1.51068960187200       0.682163716148503     
  0.532564832880000       0.357830539292537     
  0.212023236906000       5.398303027584788E-002
 
          10 0
 s           4   1.00000000000000     
   51.0493630955799      -0.163120632101274     
   8.79112274068875      -0.199110245810007     
  0.706404222589298       0.318820477536558     
  0.269228134134116       0.127065041842404     
 p           4   1.00000000000000     
   5.82636561408000       0.737164515452096     
   1.51068960187200       0.682163716148503     
  0.532564832880000       0.357830539292537     
  0.212023236906000       5.398303027584788E-002
 
          11 0
 s           4   1.00000000000000     
   51.0493630955799      -0.163120632101274     
   8.79112274068875      -0.199110245810007     
  0.706404222589298       0.318820477536558     
  0.269228134134116       0.127065041842404     
 p           4   1.00000000000000     
   5.82636561408000       0.737164515452096     
   1.51068960187200       0.682163716148503     
  0.532564832880000       0.357830539292537     
  0.212023236906000       5.398303027584788E-002
 
          12 0
 s           4   1.00000000000000     
   51.0493630955799      -0.163120632101274     
   8.79112274068875      -0.199110245810007     
  0.706404222589298       0.318820477536558     
  0.269228134134116       0.127065041842404     
 p           4   1.00000000000000     
   5.82636561408000       0.737164515452096     
   1.51068960187200       0.682163716148503     
  0.532564832880000       0.357830539292537     
  0.212023236906000       5.398303027584788E-002
 
          13 0
 s           4   1.00000000000000     
   51.0493630955799      -0.163120632101274     
   8.79112274068875      -0.199110245810007     
  0.706404222589298       0.318820477536558     
  0.269228134134116       0.127065041842404     
 p           4   1.00000000000000     
   5.82636561408000       0.737164515452096     
   1.51068960187200       0.682163716148503     
  0.532564832880000       0.357830539292537     
  0.212023236906000       5.398303027584788E-002
 
          14 0
 s           4   1.00000000000000     
   51.0493630955799      -0.163120632101274     
   8.79112274068875      -0.199110245810007     
  0.706404222589298       0.318820477536558     
  0.269228134134116       0.127065041842404     
 p           4   1.00000000000000     
   5.82636561408000       0.737164515452096     
   1.51068960187200       0.682163716148503     
  0.532564832880000       0.357830539292537     
  0.212023236906000       5.398303027584788E-002
 
          15 0
 s           4   1.00000000000000     
   69.1379619061966      -0.204787563700778     
   11.9061291327073      -0.249970231368273     
  0.956708277443407       0.400258802406396     
  0.364625204960737       0.159522066676936     
 p           4   1.00000000000000     
   8.21241932577816        1.13215567991868     
   2.12935769970981        1.04768407822548     
  0.750664482023609       0.549565082171590     
  0.298852465432831       8.290848659276662E-002
 
          16 0
 d           3   1.00000000000000     
   2.83032749122080        1.71448916425323     
  0.887453373088594       0.781034818910538     
  0.345684960408215       0.104059494248144     
 s           4   1.00000000000000     
  0.695111995148816      -6.080424419252015E-002
  0.356584305170521      -9.357916970744833E-002
  0.108935840076917       0.120409217624872     
  6.065357920736102E-002  3.064255297573086E-002
 p           4   1.00000000000000     
   2.51737953400177      -2.727839620888233E-002
  0.729880924002924      -5.782541533360520E-002
  0.127388852406668       6.998682569851342E-002
  6.250867267915186E-002  1.834609940635387E-002
 
          17 0
 s           4   1.00000000000000     
   63.5940244669410      -0.192343884147216     
   10.9514172315237      -0.234781079249537     
  0.879993102573770       0.375937539017009     
  0.335387152965211       0.149828892718628     
 p           4   1.00000000000000     
   7.29650404814951       0.976586663156674     
   1.89187454507126       0.903722267303458     
  0.666944321108241       0.474049584615364     
  0.265522026741309       7.151606771501186E-002
 
          18 0
 s           4   1.00000000000000     
   51.0493630955799      -0.163120632101274     
   8.79112274068875      -0.199110245810007     
  0.706404222589298       0.318820477536558     
  0.269228134134116       0.127065041842404     
 p           4   1.00000000000000     
   5.82636561408000       0.737164515452096     
   1.51068960187200       0.682163716148503     
  0.532564832880000       0.357830539292537     
  0.212023236906000       5.398303027584788E-002
 
          19 0
 s           4   1.00000000000000     
   51.0493630955799      -0.163120632101274     
   8.79112274068875      -0.199110245810007     
  0.706404222589298       0.318820477536558     
  0.269228134134116       0.127065041842404     
 p           4   1.00000000000000     
   5.82636561408000       0.737164515452096     
   1.51068960187200       0.682163716148503     
  0.532564832880000       0.357830539292537     
  0.212023236906000       5.398303027584788E-002
 
          20 0
 s           4   1.00000000000000     
   51.0493630955799      -0.163120632101274     
   8.79112274068875      -0.199110245810007     
  0.706404222589298       0.318820477536558     
  0.269228134134116       0.127065041842404     
 p           4   1.00000000000000     
   5.82636561408000       0.737164515452096     
   1.51068960187200       0.682163716148503     
  0.532564832880000       0.357830539292537     
  0.212023236906000       5.398303027584788E-002
 
          21 0
 s           4   1.00000000000000     
   51.0493630955799      -0.163120632101274     
   8.79112274068875      -0.199110245810007     
  0.706404222589298       0.318820477536558     
  0.269228134134116       0.127065041842404     
 p           4   1.00000000000000     
   5.82636561408000       0.737164515452096     
   1.51068960187200       0.682163716148503     
  0.532564832880000       0.357830539292537     
  0.212023236906000       5.398303027584788E-002
 
          22 0
 s           4   1.00000000000000     
   51.0493630955799      -0.163120632101274     
   8.79112274068875      -0.199110245810007     
  0.706404222589298       0.318820477536558     
  0.269228134134116       0.127065041842404     
 p           4   1.00000000000000     
   5.82636561408000       0.737164515452096     
   1.51068960187200       0.682163716148503     
  0.532564832880000       0.357830539292537     
  0.212023236906000       5.398303027584788E-002
 
          23 0
 s           4   1.00000000000000     
   51.0493630955799      -0.163120632101274     
   8.79112274068875      -0.199110245810007     
  0.706404222589298       0.318820477536558     
  0.269228134134116       0.127065041842404     
 p           4   1.00000000000000     
   5.82636561408000       0.737164515452096     
   1.51068960187200       0.682163716148503     
  0.532564832880000       0.357830539292537     
  0.212023236906000       5.398303027584788E-002
 
          24 0
 s           4   1.00000000000000     
   51.0493630955799      -0.163120632101274     
   8.79112274068875      -0.199110245810007     
  0.706404222589298       0.318820477536558     
  0.269228134134116       0.127065041842404     
 p           4   1.00000000000000     
   5.82636561408000       0.737164515452096     
   1.51068960187200       0.682163716148503     
  0.532564832880000       0.357830539292537     
  0.212023236906000       5.398303027584788E-002
 
          25 0
 s           4   1.00000000000000     
   63.5940244669410      -0.192343884147216     
   10.9514172315237      -0.234781079249537     
  0.879993102573770       0.375937539017009     
  0.335387152965211       0.149828892718628     
 p           4   1.00000000000000     
   7.29650404814951       0.976586663156674     
   1.89187454507126       0.903722267303458     
  0.666944321108241       0.474049584615364     
  0.265522026741309       7.151606771501186E-002
 
          26 0
 s           4   1.00000000000000     
   51.0493630955799      -0.163120632101274     
   8.79112274068875      -0.199110245810007     
  0.706404222589298       0.318820477536558     
  0.269228134134116       0.127065041842404     
 p           4   1.00000000000000     
   5.82636561408000       0.737164515452096     
   1.51068960187200       0.682163716148503     
  0.532564832880000       0.357830539292537     
  0.212023236906000       5.398303027584788E-002
 
          27 0
 s           4   1.00000000000000     
   51.0493630955799      -0.163120632101274     
   8.79112274068875      -0.199110245810007     
  0.706404222589298       0.318820477536558     
  0.269228134134116       0.127065041842404     
 p           4   1.00000000000000     
   5.82636561408000       0.737164515452096     
   1.51068960187200       0.682163716148503     
  0.532564832880000       0.357830539292537     
  0.212023236906000       5.398303027584788E-002
 
          28 0
 s           4   1.00000000000000     
   51.0493630955799      -0.163120632101274     
   8.79112274068875      -0.199110245810007     
  0.706404222589298       0.318820477536558     
  0.269228134134116       0.127065041842404     
 p           4   1.00000000000000     
   5.82636561408000       0.737164515452096     
   1.51068960187200       0.682163716148503     
  0.532564832880000       0.357830539292537     
  0.212023236906000       5.398303027584788E-002
 
          29 0
 s           4   1.00000000000000     
   51.0493630955799      -0.163120632101274     
   8.79112274068875      -0.199110245810007     
  0.706404222589298       0.318820477536558     
  0.269228134134116       0.127065041842404     
 p           4   1.00000000000000     
   5.82636561408000       0.737164515452096     
   1.51068960187200       0.682163716148503     
  0.532564832880000       0.357830539292537     
  0.212023236906000       5.398303027584788E-002
 
          30 0
 s           4   1.00000000000000     
   51.0493630955799      -0.163120632101274     
   8.79112274068875      -0.199110245810007     
  0.706404222589298       0.318820477536558     
  0.269228134134116       0.127065041842404     
 p           4   1.00000000000000     
   5.82636561408000       0.737164515452096     
   1.51068960187200       0.682163716148503     
  0.532564832880000       0.357830539292537     
  0.212023236906000       5.398303027584788E-002
 
          31 0
 s           4   1.00000000000000     
   51.0493630955799      -0.163120632101274     
   8.79112274068875      -0.199110245810007     
  0.706404222589298       0.318820477536558     
  0.269228134134116       0.127065041842404     
 p           4   1.00000000000000     
   5.82636561408000       0.737164515452096     
   1.51068960187200       0.682163716148503     
  0.532564832880000       0.357830539292537     
  0.212023236906000       5.398303027584788E-002
 
          32 0
 s           4   1.00000000000000     
   51.0493630955799      -0.163120632101274     
   8.79112274068875      -0.199110245810007     
  0.706404222589298       0.318820477536558     
  0.269228134134116       0.127065041842404     
 p           4   1.00000000000000     
   5.82636561408000       0.737164515452096     
   1.51068960187200       0.682163716148503     
  0.532564832880000       0.357830539292537     
  0.212023236906000       5.398303027584788E-002
 
          33 0
 s           4   1.00000000000000     
   51.0493630955799      -0.163120632101274     
   8.79112274068875      -0.199110245810007     
  0.706404222589298       0.318820477536558     
  0.269228134134116       0.127065041842404     
 p           4   1.00000000000000     
   5.82636561408000       0.737164515452096     
   1.51068960187200       0.682163716148503     
  0.532564832880000       0.357830539292537     
  0.212023236906000       5.398303027584788E-002
 
          34 0
 s           4   1.00000000000000     
   51.0493630955799      -0.163120632101274     
   8.79112274068875      -0.199110245810007     
  0.706404222589298       0.318820477536558     
  0.269228134134116       0.127065041842404     
 p           4   1.00000000000000     
   5.82636561408000       0.737164515452096     
   1.51068960187200       0.682163716148503     
  0.532564832880000       0.357830539292537     
  0.212023236906000       5.398303027584788E-002
 
          35 0
 s           4   1.00000000000000     
   51.0493630955799      -0.163120632101274     
   8.79112274068875      -0.199110245810007     
  0.706404222589298       0.318820477536558     
  0.269228134134116       0.127065041842404     
 p           4   1.00000000000000     
   5.82636561408000       0.737164515452096     
   1.51068960187200       0.682163716148503     
  0.532564832880000       0.357830539292537     
  0.212023236906000       5.398303027584788E-002
 
          36 0
 s           4   1.00000000000000     
   51.0493630955799      -0.163120632101274     
   8.79112274068875      -0.199110245810007     
  0.706404222589298       0.318820477536558     
  0.269228134134116       0.127065041842404     
 p           4   1.00000000000000     
   5.82636561408000       0.737164515452096     
   1.51068960187200       0.682163716148503     
  0.532564832880000       0.357830539292537     
  0.212023236906000       5.398303027584788E-002
 
          37 0
 s           4   1.00000000000000     
   51.0493630955799      -0.163120632101274     
   8.79112274068875      -0.199110245810007     
  0.706404222589298       0.318820477536558     
  0.269228134134116       0.127065041842404     
 p           4   1.00000000000000     
   5.82636561408000       0.737164515452096     
   1.51068960187200       0.682163716148503     
  0.532564832880000       0.357830539292537     
  0.212023236906000       5.398303027584788E-002
 
          38 0
 s           4   1.00000000000000     
   51.0493630955799      -0.163120632101274     
   8.79112274068875      -0.199110245810007     
  0.706404222589298       0.318820477536558     
  0.269228134134116       0.127065041842404     
 p           4   1.00000000000000     
   5.82636561408000       0.737164515452096     
   1.51068960187200       0.682163716148503     
  0.532564832880000       0.357830539292537     
  0.212023236906000       5.398303027584788E-002
 
          39 0
 s           4   1.00000000000000     
   51.0493630955799      -0.163120632101274     
   8.79112274068875      -0.199110245810007     
  0.706404222589298       0.318820477536558     
  0.269228134134116       0.127065041842404     
 p           4   1.00000000000000     
   5.82636561408000       0.737164515452096     
   1.51068960187200       0.682163716148503     
  0.532564832880000       0.357830539292537     
  0.212023236906000       5.398303027584788E-002
 
          40 0
 s           4   1.00000000000000     
   51.0493630955799      -0.163120632101274     
   8.79112274068875      -0.199110245810007     
  0.706404222589298       0.318820477536558     
  0.269228134134116       0.127065041842404     
 p           4   1.00000000000000     
   5.82636561408000       0.737164515452096     
   1.51068960187200       0.682163716148503     
  0.532564832880000       0.357830539292537     
  0.212023236906000       5.398303027584788E-002
 
          41 0
 s           4   1.00000000000000     
   69.1379619061966      -0.204787563700778     
   11.9061291327073      -0.249970231368273     
  0.956708277443407       0.400258802406396     
  0.364625204960737       0.159522066676936     
 p           4   1.00000000000000     
   8.21241932577816        1.13215567991868     
   2.12935769970981        1.04768407822548     
  0.750664482023609       0.549565082171590     
  0.298852465432831       8.290848659276662E-002
 
          42 0
 s           3   1.00000000000000     
   3.37022769753360       0.273591105889083     
  0.613891182214980       0.264605406538605     
  0.166142911484160       8.246594753408230E-002
 
          43 0
 s           3   1.00000000000000     
   3.37022769753360       0.273591105889083     
  0.613891182214980       0.264605406538605     
  0.166142911484160       8.246594753408230E-002
 
          44 0
 s           3   1.00000000000000     
   3.37022769753360       0.273591105889083     
  0.613891182214980       0.264605406538605     
  0.166142911484160       8.246594753408230E-002
 
          45 0
 s           3   1.00000000000000     
   3.37022769753360       0.273591105889083     
  0.613891182214980       0.264605406538605     
  0.166142911484160       8.246594753408230E-002
 
          46 0
 s           3   1.00000000000000     
   3.37022769753360       0.273591105889083     
  0.613891182214980       0.264605406538605     
  0.166142911484160       8.246594753408230E-002
 
          47 0
 s           3   1.00000000000000     
   3.37022769753360       0.273591105889083     
  0.613891182214980       0.264605406538605     
  0.166142911484160       8.246594753408230E-002
 
          48 0
 s           3   1.00000000000000     
   3.37022769753360       0.273591105889083     
  0.613891182214980       0.264605406538605     
  0.166142911484160       8.246594753408230E-002
 
          49 0
 s           3   1.00000000000000     
   3.37022769753360       0.273591105889083     
  0.613891182214980       0.264605406538605     
  0.166142911484160       8.246594753408230E-002
 
          50 0
 s           3   1.00000000000000     
   3.37022769753360       0.273591105889083     
  0.613891182214980       0.264605406538605     
  0.166142911484160       8.246594753408230E-002
 
          51 0
 s           3   1.00000000000000     
   3.37022769753360       0.273591105889083     
  0.613891182214980       0.264605406538605     
  0.166142911484160       8.246594753408230E-002
 
          52 0
 s           3   1.00000000000000     
   3.37022769753360       0.273591105889083     
  0.613891182214980       0.264605406538605     
  0.166142911484160       8.246594753408230E-002
 
          53 0
 s           3   1.00000000000000     
   3.37022769753360       0.273591105889083     
  0.613891182214980       0.264605406538605     
  0.166142911484160       8.246594753408230E-002
 
          54 0
 s           3   1.00000000000000     
   3.37022769753360       0.273591105889083     
  0.613891182214980       0.264605406538605     
  0.166142911484160       8.246594753408230E-002
 
          55 0
 s           3   1.00000000000000     
   3.37022769753360       0.273591105889083     