[Molden Format]
[Title]
[Atoms] AU
C      1     6 -0.14400295436646E+02 -0.31397644568664E+01  0.12484731894521E+01
C      2     6 -0.13082330720144E+02 -0.56412988531881E+00  0.12240680397061E+01
C      3     6 -0.13637825040579E+02  0.75332154375542E+00  0.37491179100813E+01
C      4     6 -0.14192979728811E+02  0.99277552441747E+00 -0.95732825325679E+00
C      5     6 -0.10232612602529E+02 -0.76354548422289E+00  0.88626294940784E+00
C      6     6 -0.87796926112312E+01  0.13834182788141E+01  0.80784060019148E+00
C      7     6 -0.61443161863461E+01  0.12710767477388E+01  0.52334798465372E+00
C      8     6 -0.48766754544175E+01 -0.11049006596899E+01  0.32418923375246E+00
C      9     6 -0.64056129114424E+01 -0.33358948861775E+01  0.38621116631199E+00
C     10     6 -0.51466793818928E+01 -0.59126810248126E+01  0.15003815611924E+00
C     11     6 -0.70362231242567E+01 -0.81073550898462E+01  0.17276579190235E+00
C     12     6 -0.33335227954551E+01 -0.62741706533387E+01  0.23845563290876E+01
C     13     6 -0.36875371410104E+01 -0.60217901852423E+01 -0.23528194441617E+01
C     14     6 -0.89775553419635E+01 -0.30913897364468E+01  0.65818224646617E+00
O     15     8 -0.24542578640431E+01 -0.12308432023332E+01  0.14330252660613E+00
Co    16    27  0.13431077244826E-01  0.11498435066119E+01  0.13014407912670E-01
N     17     7 -0.23006964003657E+01  0.37005966770412E+01  0.32222988042629E+00
C     18     6 -0.47406831160944E+01  0.35465775319061E+01  0.49241450581994E+00
C     19     6 -0.11961613198134E+01  0.62066338270398E+01  0.26278451016430E+00
C     20     6 -0.97355104991254E+00  0.72163544679329E+01 -0.24054094216405E+01
C     21     6 -0.12950922449332E+01  0.97853760570870E+01 -0.28417241482058E+01
C     22     6 -0.10200104248492E+01  0.10767629380439E+02 -0.52491570027757E+01
C     23     6 -0.41847358225122E+00  0.91900663810535E+01 -0.72473337603210E+01
C     24     6 -0.95231959648552E-01  0.66278813738298E+01 -0.68252561465090E+01
C     25     6 -0.36998362161406E+00  0.56448319491272E+01 -0.44188238897654E+01
C     26     6  0.14616970028625E+01  0.59577758600425E+01  0.14463699741089E+01
C     27     6  0.12720608479133E+01  0.61443563488690E+01  0.42943513803751E+01
C     28     6  0.53396076762797E+00  0.40865417029507E+01  0.57469833558840E+01
C     29     6  0.29653464037370E+00  0.43189740782826E+01  0.83396251069539E+01
C     30     6  0.79247843399853E+00  0.66070238108976E+01  0.95085881749039E+01
C     31     6  0.15286174180784E+01  0.86655548950701E+01  0.80719033653619E+01
C     32     6  0.17656568793282E+01  0.84348538097930E+01  0.54782526739399E+01
N     33     7  0.24396341897535E+01  0.35251374282661E+01  0.64101077293113E+00
C     34     6  0.48778013795145E+01  0.32486303734939E+01  0.64435002492018E+00
C     35     6  0.61809912768098E+01  0.10266236939697E+01 -0.63188244586132E-01
C     36     6  0.88394799238883E+01  0.10151856732088E+01  0.12778120389883E-01
C     37     6  0.10195563762017E+02 -0.10662444686700E+01 -0.70841709869517E+00
C     38     6  0.13063622173772E+02 -0.12098425317933E+01 -0.61626707789916E+00
C     39     6  0.13848095002970E+02 -0.33836910909797E+01  0.11376619886080E+01
C     40     6  0.14258016458462E+02  0.12277179280274E+01  0.38553579618201E+00
C     41     6  0.14087183103228E+02 -0.16850735274980E+01 -0.32886064812161E+01
C     42     6  0.88272121180833E+01 -0.31750546146850E+01 -0.15840700191820E+01
C     43     6  0.62411559228150E+01 -0.32844344128715E+01 -0.17206523915487E+01
C     44     6  0.48660105369559E+01 -0.56170299975698E+01 -0.26925105717060E+01
C     45     6  0.66654677106800E+01 -0.77234586645693E+01 -0.35359853213378E+01
C     46     6  0.32377533323832E+01 -0.48723131497595E+01 -0.49745091936297E+01
C     47     6  0.31889270260911E+01 -0.66622727388802E+01 -0.57301294447681E+00
C     48     6  0.48038492655048E+01 -0.11421874687926E+01 -0.89146437665620E+00
O     49     8  0.23738220066678E+01 -0.11564966137149E+01 -0.93098814616795E+00
H     50     1 -0.16424845029717E+02 -0.28683300192379E+01  0.14894031038959E+01
H     51     1 -0.14102702690989E+02 -0.41410727200966E+01 -0.52122508345309E+00
H     52     1 -0.13729277967218E+02 -0.43012297771224E+01  0.28053646388653E+01
H     53     1 -0.15667466978326E+02  0.89895021585596E+00  0.40458120687117E+01
H     54     1 -0.12842560710622E+02  0.26456140820027E+01  0.37929721804216E+01
H     55     1 -0.12825464082884E+02 -0.32098770903858E+00  0.53025752840407E+01
H     56     1 -0.13768472317447E+02  0.94284130521609E-01 -0.27570656243476E+01
H     57     1 -0.13416492836262E+02  0.28929066902582E+01 -0.98968022811892E+00
H     58     1 -0.16235224531455E+02  0.11347318730686E+01 -0.76269500742297E+00
H     59     1 -0.96295200288223E+01  0.32334365465812E+01  0.96927947778188E+00
H     60     1 -0.80832333975985E+01 -0.81805435309987E+01  0.19404756221898E+01
H     61     1 -0.83590730265651E+01 -0.79724784235840E+01 -0.13951041842668E+01
H     62     1 -0.60066642623617E+01 -0.98771796983416E+01 -0.20551440215975E-01
H     63     1 -0.19229564955818E+01 -0.47864748560523E+01  0.24117784075103E+01
H     64     1 -0.23737751450132E+01 -0.80858027330156E+01  0.22343144377157E+01
H     65     1 -0.43758607827449E+01 -0.62265243969278E+01  0.41578163873628E+01
H     66     1 -0.22482279007831E+01 -0.45641018689587E+01 -0.24067811349945E+01
H     67     1 -0.49728822808433E+01 -0.57438564693022E+01 -0.39350487953557E+01
H     68     1 -0.27771843182573E+01 -0.78527533867930E+01 -0.25613502800513E+01
H     69     1 -0.10101257440256E+02 -0.47818827378149E+01  0.70439609165466E+00
H     70     1 -0.58231620561663E+01  0.52968797845304E+01  0.65152198254663E+00
H     71     1 -0.23381924535936E+01  0.75346608691721E+01  0.13842454930143E+01
H     72     1 -0.17641681117930E+01  0.11024268174145E+02 -0.12855805091047E+01
H     73     1 -0.12787251532225E+01  0.12767636081103E+02 -0.55638814906225E+01
H     74     1 -0.20554832567049E+00  0.99551396003694E+01 -0.91270517069555E+01
H     75     1  0.37350911670683E+00  0.53870649746593E+01 -0.83758499570806E+01
H     76     1 -0.12003016487753E+00  0.36325481384947E+01 -0.40962847934551E+01
H     77     1  0.26799655584278E+01  0.74937313448493E+01  0.75412716237539E+00
H     78     1  0.15089809360725E+00  0.22889804906960E+01  0.48362573278048E+01
H     79     1 -0.27795329305221E+00  0.27065134751093E+01  0.94501591136695E+01
H     80     1  0.60939976305165E+00  0.67854908288994E+01  0.11533085071021E+02
H     81     1  0.19224636130470E+01  0.10455058221198E+02  0.89710029003787E+01
H     82     1  0.23401259651515E+01  0.10046877360894E+02  0.43612100768416E+01
H     83     1  0.60416907539786E+01  0.48599249554866E+01  0.11993356544007E+01
H     84     1  0.97581779697009E+01  0.27118599600952E+01  0.67055124128798E+00
H     85     1  0.13150485412410E+02 -0.51889275962054E+01  0.45329164271659E+00
H     86     1  0.13093905929735E+02 -0.30769172927348E+01  0.30255640749624E+01
H     87     1  0.15897863659485E+02 -0.34917543962384E+01  0.12617366745416E+01
H     88     1  0.13801911955229E+02  0.28244315235780E+01 -0.82526071843721E+00
H     89     1  0.16304174528113E+02  0.10248761717431E+01  0.42643600127073E+00
H     90     1  0.13620236431081E+02  0.16281938226827E+01  0.22977235115901E+01
H     91     1  0.13403307068384E+02 -0.34651888768252E+01 -0.40484886935361E+01
H     92     1  0.16142426769576E+02 -0.17461509146652E+01 -0.32605338416366E+01
H     93     1  0.13494961579634E+02 -0.17564940200330E+00 -0.45527629525523E+01
H     94     1  0.99000150128689E+01 -0.47968815788702E+01 -0.21816803618736E+01
H     95     1  0.78215395258069E+01 -0.83925704474062E+01 -0.19731466365370E+01
H     96     1  0.78869243175055E+01 -0.70971462148115E+01 -0.50668054200344E+01
H     97     1  0.55580376505856E+01 -0.93139203865054E+01 -0.42239970108175E+01
H     98     1  0.22324865908064E+01 -0.65154898634720E+01 -0.56928554190559E+01
H     99     1  0.18623342147035E+01 -0.34478928593832E+01 -0.44422785466188E+01
H    100     1  0.44236472472878E+01 -0.41179534618789E+01 -0.64771935946932E+01
H    101     1  0.43372671962653E+01 -0.71798238995901E+01  0.10536552317599E+01
H    102     1  0.21829810054909E+01 -0.83318963481935E+01 -0.12251399592913E+01
H    103     1  0.18191626568800E+01 -0.52528717554742E+01  0.55163011384987E-02
[GTO]
           1 0
 s           4   1.00000000000000     
   51.0493630955799      -0.163120632101274     
   8.79112274068875      -0.199110245810007     
  0.706404222589298       0.318820477536558     
  0.269228134134116       0.127065041842404     
 p           4   1.00000000000000     
   5.82636561408000       0.737164515452096     
   1.51068960187200       0.682163716148503     
  0.532564832880000       0.357830539292537     
  0.212023236906000       5.398303027584788E-002
 
           2 0
 s           4   1.00000000000000     
   51.0493630955799      -0.163120632101274     
   8.79112274068875      -0.199110245810007     
  0.706404222589298       0.318820477536558     
  0.269228134134116       0.127065041842404     
 p           4   1.00000000000000     
   5.82636561408000       0.737164515452096     
   1.51068960187200       0.682163716148503     
  0.532564832880000       0.357830539292537     
  0.212023236906000       5.398303027584788E-002
 
           3 0
 s           4   1.00000000000000     
   51.0493630955799      -0.163120632101274     
   8.79112274068875      -0.199110245810007     
  0.706404222589298       0.318820477536558     
  0.269228134134116       0.127065041842404     
 p           4   1.00000000000000     
   5.82636561408000       0.737164515452096     
   1.51068960187200       0.682163716148503     
  0.532564832880000       0.357830539292537     
  0.212023236906000       5.398303027584788E-002
 
           4 0
 s           4   1.00000000000000     
   51.0493630955799      -0.163120632101274     
   8.79112274068875      -0.199110245810007     
  0.706404222589298       0.318820477536558     
  0.269228134134116       0.127065041842404     
 p           4   1.00000000000000     
   5.82636561408000       0.737164515452096     
   1.51068960187200       0.682163716148503     
  0.532564832880000       0.357830539292537     
  0.212023236906000       5.398303027584788E-002
 
           5 0
 s           4   1.00000000000000     
   51.0493630955799      -0.163120632101274     
   8.79112274068875      -0.199110245810007     
  0.706404222589298       0.318820477536558     
  0.269228134134116       0.127065041842404     
 p           4   1.00000000000000     
   5.82636561408000       0.737164515452096     
   1.51068960187200       0.682163716148503     
  0.532564832880000       0.357830539292537     
  0.212023236906000       5.398303027584788E-002
 
           6 0
 s           4   1.00000000000000     
   51.0493630955799      -0.163120632101274     
   8.79112274068875      -0.199110245810007     
  0.706404222589298       0.318820477536558     
  0.269228134134116       0.127065041842404     
 p           4   1.00000000000000     
   5.82636561408000       0.737164515452096     
   1.51068960187200       0.682163716148503     
  0.532564832880000       0.357830539292537     
  0.212023236906000       5.398303027584788E-002
 
           7 0
 s           4   1.00000000000000     
   51.0493630955799      -0.163120632101274     
   8.79112274068875      -0.199110245810007     
  0.706404222589298       0.318820477536558     
  0.269228134134116       0.127065041842404     
 p           4   1.00000000000000     
   5.82636561408000       0.737164515452096     
   1.51068960187200       0.682163716148503     
  0.532564832880000       0.357830539292537     
  0.212023236906000       5.398303027584788E-002
 
           8 0
 s           4   1.00000000000000     
   51.0493630955799      -0.163120632101274     
   8.79112274068875      -0.199110245810007     
  0.706404222589298       0.318820477536558     
  0.269228134134116       0.127065041842404     
 p           4   1.00000000000000     
   5.82636561408000       0.737164515452096     
   1.51068960187200       0.682163716148503     
  0.532564832880000       0.357830539292537     
  0.212023236906000       5.398303027584788E-002
 
           9 0
 s           4   1.00000000000000     
   51.0493630955799      -0.163120632101274     
   8.79112274068875      -0.199110245810007     
  0.706404222589298       0.318820477536558     
  0.269228134134116       0.127065041842404     
 p           4   1.00000000000000     
   5.82636561408000       0.737164515452096     
   1.51068960187200       0.682163716148503     
  0.532564832880000       0.357830539292537     
  0.212023236906000       5.398303027584788E-002
 
          10 0
 s           4   1.00000000000000     
   51.0493630955799      -0.163120632101274     
   8.79112274068875      -0.199110245810007     
  0.706404222589298       0.318820477536558     
  0.269228134134116       0.127065041842404     
 p           4   1.00000000000000     
   5.82636561408000       0.737164515452096     
   1.51068960187200       0.682163716148503     
  0.532564832880000       0.357830539292537     
  0.212023236906000       5.398303027584788E-002
 
          11 0
 s           4   1.00000000000000     
   51.0493630955799      -0.163120632101274     
   8.79112274068875      -0.199110245810007     
  0.706404222589298       0.318820477536558     
  0.269228134134116       0.127065041842404     
 p           4   1.00000000000000     
   5.82636561408000       0.737164515452096     
   1.51068960187200       0.682163716148503     
  0.532564832880000       0.357830539292537     
  0.212023236906000       5.398303027584788E-002
 
          12 0
 s           4   1.00000000000000     
   51.0493630955799      -0.163120632101274     
   8.79112274068875      -0.199110245810007     
  0.706404222589298       0.318820477536558     
  0.269228134134116       0.127065041842404     
 p           4   1.00000000000000     
   5.82636561408000       0.737164515452096     
   1.51068960187200       0.682163716148503     
  0.532564832880000       0.357830539292537     
  0.212023236906000       5.398303027584788E-002
 
          13 0
 s           4   1.00000000000000     
   51.0493630955799      -0.163120632101274     
   8.79112274068875      -0.199110245810007     
  0.706404222589298       0.318820477536558     
  0.269228134134116       0.127065041842404     
 p           4   1.00000000000000     
   5.82636561408000       0.737164515452096     
   1.51068960187200       0.682163716148503     
  0.532564832880000       0.357830539292537     
  0.212023236906000       5.398303027584788E-002
 
          14 0
 s           4   1.00000000000000     
   51.0493630955799      -0.163120632101274     
   8.79112274068875      -0.199110245810007     
  0.706404222589298       0.318820477536558     
  0.269228134134116       0.127065041842404     
 p           4   1.00000000000000     
   5.82636561408000       0.737164515452096     
   1.51068960187200       0.682163716148503     
  0.532564832880000       0.357830539292537     
  0.212023236906000       5.398303027584788E-002
 
          15 0
 s           4   1.00000000000000     
   69.1379619061966      -0.204787563700778     
   11.9061291327073      -0.249970231368273     
  0.956708277443407       0.400258802406396     
  0.364625204960737       0.159522066676936     
 p           4   1.00000000000000     
   8.21241932577816        1.13215567991868     
   2.12935769970981        1.04768407822548     
  0.750664482023609       0.549565082171590     
  0.298852465432831       8.290848659276662E-002
 
          16 0
 d           3   1.00000000000000     
   2.83032749122080        1.71448916425323     
  0.887453373088594       0.781034818910538     
  0.345684960408215       0.104059494248144     
 s           4   1.00000000000000     
  0.695111995148816      -6.080424419252015E-002
  0.356584305170521      -9.357916970744833E-002
  0.108935840076917       0.120409217624872     
  6.065357920736102E-002  3.064255297573086E-002
 p           4   1.00000000000000     
   2.51737953400177      -2.727839620888233E-002
  0.729880924002924      -5.782541533360520E-002
  0.127388852406668       6.998682569851342E-002
  6.250867267915186E-002  1.834609940635387E-002
 
          17 0
 s           4   1.00000000000000     
   63.5940244669410      -0.192343884147216     
   10.9514172315237      -0.234781079249537     
  0.879993102573770       0.375937539017009     
  0.335387152965211       0.149828892718628     
 p           4   1.00000000000000     
   7.29650404814951       0.976586663156674     
   1.89187454507126       0.903722267303458     
  0.666944321108241       0.474049584615364     
  0.265522026741309       7.151606771501186E-002
 
          18 0
 s           4   1.00000000000000     
   51.0493630955799      -0.163120632101274     
   8.79112274068875      -0.199110245810007     
  0.706404222589298       0.318820477536558     
  0.269228134134116       0.127065041842404     
 p           4   1.00000000000000     
   5.82636561408000       0.737164515452096     
   1.51068960187200       0.682163716148503     
  0.532564832880000       0.357830539292537     
  0.212023236906000       5.398303027584788E-002
 
          19 0
 s           4   1.00000000000000     
   51.0493630955799      -0.163120632101274     
   8.79112274068875      -0.199110245810007     
  0.706404222589298       0.318820477536558     
  0.269228134134116       0.127065041842404     
 p           4   1.00000000000000     
   5.82636561408000       0.737164515452096     
   1.51068960187200       0.682163716148503     
  0.532564832880000       0.357830539292537     
  0.212023236906000       5.398303027584788E-002
 
          20 0
 s           4   1.00000000000000     
   51.0493630955799      -0.163120632101274     
   8.79112274068875      -0.199110245810007     
  0.706404222589298       0.318820477536558     
  0.269228134134116       0.127065041842404     
 p           4   1.00000000000000     
   5.82636561408000       0.737164515452096     
   1.51068960187200       0.682163716148503     
  0.532564832880000       0.357830539292537     
  0.212023236906000       5.398303027584788E-002
 
          21 0
 s           4   1.00000000000000     
   51.0493630955799      -0.163120632101274     
   8.79112274068875      -0.199110245810007     
  0.706404222589298       0.318820477536558     
  0.269228134134116       0.127065041842404     
 p           4   1.00000000000000     
   5.82636561408000       0.737164515452096     
   1.51068960187200       0.682163716148503     
  0.532564832880000       0.357830539292537     
  0.212023236906000       5.398303027584788E-002
 
          22 0
 s           4   1.00000000000000     
   51.0493630955799      -0.163120632101274     
   8.79112274068875      -0.199110245810007     
  0.706404222589298       0.318820477536558     
  0.269228134134116       0.127065041842404     
 p           4   1.00000000000000     
   5.82636561408000       0.737164515452096     
   1.51068960187200       0.682163716148503     
  0.532564832880000       0.357830539292537     
  0.212023236906000       5.398303027584788E-002
 
          23 0
 s           4   1.00000000000000     
   51.0493630955799      -0.163120632101274     
   8.79112274068875      -0.199110245810007     
  0.706404222589298       0.318820477536558     
  0.269228134134116       0.127065041842404     
 p           4   1.00000000000000     
   5.82636561408000       0.737164515452096     
   1.51068960187200       0.682163716148503     
  0.532564832880000       0.357830539292537     
  0.212023236906000       5.398303027584788E-002
 
          24 0
 s           4   1.00000000000000     
   51.0493630955799      -0.163120632101274     
   8.79112274068875      -0.199110245810007     
  0.706404222589298       0.318820477536558     
  0.269228134134116       0.127065041842404     
 p           4   1.00000000000000     
   5.82636561408000       0.737164515452096     
   1.51068960187200       0.682163716148503     
  0.532564832880000       0.357830539292537     
  0.212023236906000       5.398303027584788E-002
 
          25 0
 s           4   1.00000000000000     
   51.0493630955799      -0.163120632101274     
   8.79112274068875      -0.199110245810007     
  0.706404222589298       0.318820477536558     
  0.269228134134116       0.127065041842404     
 p           4   1.00000000000000     
   5.82636561408000       0.737164515452096     
   1.51068960187200       0.682163716148503     
  0.532564832880000       0.357830539292537     
  0.212023236906000       5.398303027584788E-002
 
          26 0
 s           4   1.00000000000000     
   51.0493630955799      -0.163120632101274     
   8.79112274068875      -0.199110245810007     
  0.706404222589298       0.318820477536558     
  0.269228134134116       0.127065041842404     
 p           4   1.00000000000000     
   5.82636561408000       0.737164515452096     
   1.51068960187200       0.682163716148503     
  0.532564832880000       0.357830539292537     
  0.212023236906000       5.398303027584788E-002
 
          27 0
 s           4   1.00000000000000     
   51.0493630955799      -0.163120632101274     
   8.79112274068875      -0.199110245810007     
  0.706404222589298       0.318820477536558     
  0.269228134134116       0.127065041842404     
 p           4   1.00000000000000     
   5.82636561408000       0.737164515452096     
   1.51068960187200       0.682163716148503     
  0.532564832880000       0.357830539292537     
  0.212023236906000       5.398303027584788E-002
 
          28 0
 s           4   1.00000000000000     
   51.0493630955799      -0.163120632101274     
   8.79112274068875      -0.199110245810007     
  0.706404222589298       0.318820477536558     
  0.269228134134116       0.127065041842404     
 p           4   1.00000000000000     
   5.82636561408000       0.737164515452096     
   1.51068960187200       0.682163716148503     
  0.532564832880000       0.357830539292537     
  0.212023236906000       5.398303027584788E-002
 
          29 0
 s           4   1.00000000000000     
   51.0493630955799      -0.163120632101274     
   8.79112274068875      -0.199110245810007     
  0.706404222589298       0.318820477536558     
  0.269228134134116       0.127065041842404     
 p           4   1.00000000000000     
   5.82636561408000       0.737164515452096     
   1.51068960187200       0.682163716148503     
  0.532564832880000       0.357830539292537     
  0.212023236906000       5.398303027584788E-002
 
          30 0
 s           4   1.00000000000000     
   51.0493630955799      -0.163120632101274     
   8.79112274068875      -0.199110245810007     
  0.706404222589298       0.318820477536558     
  0.269228134134116       0.127065041842404     
 p           4   1.00000000000000     
   5.82636561408000       0.737164515452096     
   1.51068960187200       0.682163716148503     
  0.532564832880000       0.357830539292537     
  0.212023236906000       5.398303027584788E-002
 
          31 0
 s           4   1.00000000000000     
   51.0493630955799      -0.163120632101274     
   8.79112274068875      -0.199110245810007     
  0.706404222589298       0.318820477536558     
  0.269228134134116       0.127065041842404     
 p           4   1.00000000000000     
   5.82636561408000       0.737164515452096     
   1.51068960187200       0.682163716148503     
  0.532564832880000       0.357830539292537     
  0.212023236906000       5.398303027584788E-002
 
          32 0
 s           4   1.00000000000000     
   51.0493630955799      -0.163120632101274     
   8.79112274068875      -0.199110245810007     
  0.706404222589298       0.318820477536558     
  0.269228134134116       0.127065041842404     
 p           4   1.00000000000000     
   5.82636561408000       0.737164515452096     
   1.51068960187200       0.682163716148503     
  0.532564832880000       0.357830539292537     
  0.212023236906000       5.398303027584788E-002
 
          33 0
 s           4   1.00000000000000     
   63.5940244669410      -0.192343884147216     
   10.9514172315237      -0.234781079249537     
  0.879993102573770       0.375937539017009     
  0.335387152965211       0.149828892718628     
 p           4   1.00000000000000     
   7.29650404814951       0.976586663156674     
   1.89187454507126       0.903722267303458     
  0.666944321108241       0.474049584615364     
  0.265522026741309       7.151606771501186E-002
 
          34 0
 s           4   1.00000000000000     
   51.0493630955799      -0.163120632101274     
   8.79112274068875      -0.199110245810007     
  0.706404222589298       0.318820477536558     
  0.269228134134116       0.127065041842404     
 p           4   1.00000000000000     
   5.82636561408000       0.737164515452096     
   1.51068960187200       0.682163716148503     
  0.532564832880000       0.357830539292537     
  0.212023236906000       5.398303027584788E-002
 
          35 0
 s           4   1.00000000000000     
   51.0493630955799      -0.163120632101274     
   8.79112274068875      -0.199110245810007     
  0.706404222589298       0.318820477536558     
  0.269228134134116       0.127065041842404     
 p           4   1.00000000000000     
   5.82636561408000       0.737164515452096     
   1.51068960187200       0.682163716148503     
  0.532564832880000       0.357830539292537     
  0.212023236906000       5.398303027584788E-002
 
          36 0
 s           4   1.00000000000000     
   51.0493630955799      -0.163120632101274     
   8.79112274068875      -0.199110245810007     
  0.706404222589298       0.318820477536558     
  0.269228134134116       0.127065041842404     
 p           4   1.00000000000000     
   5.82636561408000       0.737164515452096     
   1.51068960187200       0.682163716148503     
  0.532564832880000       0.357830539292537     
  0.212023236906000       5.398303027584788E-002
 
          37 0
 s           4   1.00000000000000     
   51.0493630955799      -0.163120632101274     
   8.79112274068875      -0.199110245810007     
  0.706404222589298       0.318820477536558     
  0.269228134134116       0.127065041842404     
 p           4   1.00000000000000     
   5.82636561408000       0.737164515452096     
   1.51068960187200       0.682163716148503     
  0.532564832880000       0.357830539292537     
  0.212023236906000       5.398303027584788E-002
 
          38 0
 s           4   1.00000000000000     
   51.0493630955799      -0.163120632101274     
   8.79112274068875      -0.199110245810007     
  0.706404222589298       0.318820477536558     
  0.269228134134116       0.127065041842404     
 p           4   1.00000000000000     
   5.82636561408000       0.737164515452096     
   1.51068960187200       0.682163716148503     
  0.532564832880000       0.357830539292537     
  0.212023236906000       5.398303027584788E-002
 
          39 0
 s           4   1.00000000000000     
   51.0493630955799      -0.163120632101274     
   8.79112274068875      -0.199110245810007     
  0.706404222589298       0.318820477536558     
  0.269228134134116       0.127065041842404     
 p           4   1.00000000000000     
   5.82636561408000       0.737164515452096     
   1.51068960187200       0.682163716148503     
  0.532564832880000       0.357830539292537     
  0.212023236906000       5.398303027584788E-002
 
          40 0
 s           4   1.00000000000000     
   51.0493630955799      -0.163120632101274     
   8.79112274068875      -0.199110245810007     
  0.706404222589298       0.318820477536558     
  0.269228134134116       0.127065041842404     
 p           4   1.00000000000000     
   5.82636561408000       0.737164515452096     
   1.51068960187200       0.682163716148503     
  0.532564832880000       0.357830539292537     
  0.212023236906000       5.398303027584788E-002
 
          41 0
 s           4   1.00000000000000     
   51.0493630955799      -0.163120632101274     
   8.79112274068875      -0.199110245810007     
  0.706404222589298       0.318820477536558     
  0.269228134134116       0.127065041842404     
 p           4   1.00000000000000     
   5.82636561408000       0.737164515452096     
   1.51068960187200       0.682163716148503     
  0.532564832880000       0.357830539292537     
  0.212023236906000       5.398303027584788E-002
 
          42 0
 s           4   1.00000000000000     
   51.0493630955799      -0.163120632101274     
   8.79112274068875      -0.199110245810007     
  0.706404222589298       0.318820477536558     
  0.269228134134116       0.127065041842404     
 p           4   1.00000000000000     
   5.82636561408000       0.737164515452096     
   1.51068960187200       0.682163716148503     
  0.532564832880000       0.357830539292537     
  0.212023236906000       5.398303027584788E-002
 
          43 0
 s           4   1.00000000000000     
   51.0493630955799      -0.163120632101274     
   8.79112274068875      -0.199110245810007     
  0.706404222589298       0.318820477536558     
  0.269228134134116       0.127065041842404     
 p           4   1.00000000000000     
   5.82636561408000       0.737164515452096     
   1.51068960187200       0.682163716148503     
  0.532564832880000       0.357830539292537     
  0.212023236906000       5.398303027584788E-002
 
          44 0
 s           4   1.00000000000000     
   51.0493630955799      -0.163120632101274     
   8.79112274068875      -0.199110245810007     
  0.706404222589298       0.318820477536558     
  0.269228134134116       0.127065041842404     
 p           4   1.00000000000000     
   5.82636561408000       0.737164515452096     
   1.51068960187200       0.682163716148503     
  0.532564832880000       0.357830539292537     
  0.212023236906000       5.398303027584788E-002
 