55
 energy: -85.749358029201 gnorm: 0.000336730548 xtb: 6.7.1 (edcfbbe)
Cl          -0.59485359658038        2.05192198156657       -2.51785106931120
Co          -0.21665347851632        0.08727774942854       -2.03653484648070
Cl           0.14018647380695       -1.98986407544877       -2.31432493116205
P           -1.66812786954830       -0.06731219879962       -0.33748498594334
C           -2.72747820929878        1.35012943616537        0.06988518413965
C           -4.10462046590578        1.26527926244211       -0.11943490089402
C           -4.90634274669203        2.37006914864526        0.09959895776505
C           -4.34153208224340        3.57310315534322        0.48969972927222
C           -2.96849437794868        3.67195363590719        0.64538825044344
C           -2.16210531847447        2.57099849936580        0.42745475427617
C           -2.74236895357479       -1.48847856758176        0.05530681222566
C           -3.41056792896414       -1.53782028619117        1.27747106543118
C           -4.21851997937643       -2.61647978707192        1.58009134374880
C           -4.36911301297081       -3.65097312312635        0.66862642010781
C           -3.71487036427026       -3.60055269718147       -0.54975128548345
C           -2.90505438743976       -2.52036329659363       -0.85942862844981
C           -0.47601411455690       -0.12754881996970        1.09080333804627
C            0.74270104098373       -0.96776704498887        0.71492088393117
P            1.56381181133318       -0.16833435233387       -0.73808152685096
C            2.35078380063421        1.24617866624152        0.12068930424884
C            3.35065072965850        1.01680346994381        1.06250849592634
C            3.91931557123743        2.07927271598214        1.73825554627449
C            3.49745612332267        3.37479604496977        1.47973148346927
C            2.50963089652630        3.60664108008246        0.53819360917915
C            1.93767530933292        2.54508449915590       -0.14350177182715
C            3.01046775930128       -1.19417494142969       -1.10405727875434
C            3.06759517581407       -2.55837636942730       -0.84531409211170
C            4.19602837333022       -3.27692589141629       -1.19877009672948
C            5.26208916797193       -2.64733150461739       -1.81954932008242
C            5.20006258139165       -1.29053075835926       -2.09681433807855
C            4.07708522431991       -0.56707588391515       -1.74564317987064
H           -4.54560595757679        0.33088057544838       -0.43891190278262
H           -5.97443584774175        2.29412280225832       -0.04289102840670
H           -4.96892551245267        4.43598383597230        0.65700951553467
H           -2.52308678225384        4.61448750436171        0.92736569209406
H           -1.08974455071875        2.66687250538382        0.51365937775399
H           -3.30846698068582       -0.72284877169415        1.98160748818450
H           -4.73501425072063       -2.65099313890413        2.52842766537307
H           -5.00134169800814       -4.49262090017535        0.91034253499652
H           -3.83467836779444       -4.40277209460157       -1.26246155092804
H           -2.38440151475348       -2.48015500590682       -1.80455766060690
H           -0.16034027838174        0.89506289898715        1.31701744482838
H           -0.98225364085637       -0.54309546139718        1.96671011909063
H            0.42619142010059       -1.97278071625728        0.42534772700029
H            1.44929035597208       -1.03104875594404        1.54843410027801
H            3.68717421192259        0.00665622274066        1.25481600449126
H            4.69528613863494        1.89831179388916        2.46792793043163
H            3.94564736499401        4.20200882929467        2.01022377703744
H            2.18560443664196        4.61544001951586        0.32921337803751
H            1.17298494608538        2.71711198315994       -0.88914798652329
H            2.23065578532920       -3.06001305474467       -0.38490021419998
H            4.24016931484111       -4.33660616111754       -0.99409715021534
H            6.13802742707462       -3.21517436581843       -2.09641480608138
H            6.02502542372200       -0.79988995889727       -2.59217002463811
H            4.01341540400771        0.49145966771255       -1.96463335717260
