[Molden Format]
[Title]
[Atoms] AU
C      1     6 -0.16804264978151E+01 -0.49567056960598E+01  0.35021158256080E+01
N      2     7  0.31883536901781E+00 -0.42358099492138E+01  0.22838357713751E+01
Co     3    27  0.87343311895818E+00 -0.12705537155942E+01  0.57644871111208E+00
N      4     7  0.37973786095904E+01 -0.27083032684090E+01 -0.59458514365120E+00
C      5     6  0.55298216248053E+01 -0.17042769483246E+01 -0.20085486466672E+01
C      6     6  0.55726380871999E+01  0.86232543204272E+00 -0.27882435020010E+01
C      7     6  0.75074371312084E+01  0.17584121495958E+01 -0.43181123479598E+01
C      8     6  0.76066553281622E+01  0.42728698435110E+01 -0.51044599429199E+01
C      9     6  0.95484425181231E+01  0.51973968920386E+01 -0.66927913382264E+01
C     10     6  0.95882771507642E+01  0.76654567610086E+01 -0.74306031088160E+01
C     11     6  0.76859239403890E+01  0.93390390339277E+01 -0.66113502942668E+01
C     12     6  0.57863591116140E+01  0.85161895468109E+01 -0.50784542210354E+01
C     13     6  0.56730990985782E+01  0.59653052502606E+01 -0.42729179490864E+01
C     14     6  0.37454646653153E+01  0.50777547407892E+01 -0.27126540991006E+01
C     15     6  0.36012719280975E+01  0.25527098458747E+01 -0.19471422782090E+01
O     16     8  0.17863892075459E+01  0.18006741382345E+01 -0.51133836804226E+00
C     17     6  0.40356675634064E+01 -0.53846740877646E+01 -0.26180275345966E-01
C     18     6  0.25138324969345E+01 -0.58822380143652E+01  0.23679515174585E+01
O     19     8 -0.23051689004274E+01 -0.22486973467184E+00  0.11011339466380E+01
C     20     6 -0.41556149228103E+01 -0.11549212923832E+01  0.23785977548188E+01
C     21     6 -0.64553133730386E+01  0.13697316584378E+00  0.25367367232049E+01
C     22     6 -0.85220672137314E+01 -0.82840909959694E+00  0.38533248872265E+01
C     23     6 -0.10848699623497E+02  0.48792003850360E+00  0.40053096683189E+01
C     24     6 -0.12853494180553E+02 -0.50705671252997E+00  0.52802525217900E+01
C     25     6 -0.12654888891426E+02 -0.28738132337390E+01  0.64847446425419E+01
C     26     6 -0.10444874904737E+02 -0.41943257626191E+01  0.63903469458884E+01
C     27     6 -0.83233467342310E+01 -0.32243291787033E+01  0.50838532390183E+01
C     28     6 -0.60370176369781E+01 -0.45295903283077E+01  0.49434592989307E+01
C     29     6 -0.39704003082421E+01 -0.35652552916775E+01  0.36450184266405E+01
H     30     1 -0.16409716307824E+01 -0.67697662714507E+01  0.44865526660518E+01
H     31     1  0.70888864179698E+01 -0.28902973910878E+01 -0.26561903622269E+01
H     32     1  0.89745352750083E+01  0.47026643508648E+00 -0.49278538572800E+01
H     33     1  0.10999664943176E+02  0.38998912158580E+01 -0.73127524621144E+01
H     34     1  0.11073052863570E+02  0.83598352611432E+01 -0.86469581193529E+01
H     35     1  0.77512576622734E+01  0.11287924223787E+02 -0.72167149977894E+01
H     36     1  0.43259252873526E+01  0.97967467656341E+01 -0.44497658550716E+01
H     37     1  0.22767109519393E+01  0.63473697855821E+01 -0.20857142112208E+01
H     38     1  0.32302531841885E+01 -0.64696169544347E+01 -0.15983359265515E+01
H     39     1  0.60188422561257E+01 -0.59379717146823E+01  0.20414775015220E+00
H     40     1  0.19667939707666E+01 -0.78750404466253E+01  0.25216363233580E+01
H     41     1  0.36494347653979E+01 -0.53831822015552E+01  0.40284124589066E+01
H     42     1 -0.65961966104806E+01  0.19459388190275E+01  0.16039635981541E+01
H     43     1 -0.10998013205764E+02  0.23015198751330E+01  0.30797344299384E+01
H     44     1 -0.14620487221760E+02  0.51119404978780E+00  0.53794201347639E+01
H     45     1 -0.14270379889706E+02 -0.36260483186234E+01  0.74800459831134E+01
H     46     1 -0.10275071556800E+02 -0.60105927890417E+01  0.73102611946702E+01
H     47     1 -0.58738512325177E+01 -0.63460648663628E+01  0.58694632240396E+01
[GTO]
           1 0
 s           4   1.00000000000000     
   51.0493630955799      -0.163120632101274     
   8.79112274068875      -0.199110245810007     
  0.706404222589298       0.318820477536558     
  0.269228134134116       0.127065041842404     
 p           4   1.00000000000000     
   5.82636561408000       0.737164515452096     
   1.51068960187200       0.682163716148503     
  0.532564832880000       0.357830539292537     
  0.212023236906000       5.398303027584788E-002
 
           2 0
 s           4   1.00000000000000     
   63.5940244669410      -0.192343884147216     
   10.9514172315237      -0.234781079249537     
  0.879993102573770       0.375937539017009     
  0.335387152965211       0.149828892718628     
 p           4   1.00000000000000     
   7.29650404814951       0.976586663156674     
   1.89187454507126       0.903722267303458     
  0.666944321108241       0.474049584615364     
  0.265522026741309       7.151606771501186E-002
 
           3 0
 d           3   1.00000000000000     
   2.83032749122080        1.71448916425323     
  0.887453373088594       0.781034818910538     
  0.345684960408215       0.104059494248144     
 s           4   1.00000000000000     
  0.695111995148816      -6.080424419252015E-002
  0.356584305170521      -9.357916970744833E-002
  0.108935840076917       0.120409217624872     
  6.065357920736102E-002  3.064255297573086E-002
 p           4   1.00000000000000     
   2.51737953400177      -2.727839620888233E-002
  0.729880924002924      -5.782541533360520E-002
  0.127388852406668       6.998682569851342E-002
  6.250867267915186E-002  1.834609940635387E-002
 
           4 0
 s           4   1.00000000000000     
   63.5940244669410      -0.192343884147216     
   10.9514172315237      -0.234781079249537     
  0.879993102573770       0.375937539017009     
  0.335387152965211       0.149828892718628     
 p           4   1.00000000000000     
   7.29650404814951       0.976586663156674     
   1.89187454507126       0.903722267303458     
  0.666944321108241       0.474049584615364     
  0.265522026741309       7.151606771501186E-002
 
           5 0
 s           4   1.00000000000000     
   51.0493630955799      -0.163120632101274     
   8.79112274068875      -0.199110245810007     
  0.706404222589298       0.318820477536558     
  0.269228134134116       0.127065041842404     
 p           4   1.00000000000000     
   5.82636561408000       0.737164515452096     
   1.51068960187200       0.682163716148503     
  0.532564832880000       0.357830539292537     
  0.212023236906000       5.398303027584788E-002
 
           6 0
 s           4   1.00000000000000     
   51.0493630955799      -0.163120632101274     
   8.79112274068875      -0.199110245810007     
  0.706404222589298       0.318820477536558     
  0.269228134134116       0.127065041842404     
 p           4   1.00000000000000     
   5.82636561408000       0.737164515452096     
   1.51068960187200       0.682163716148503     
  0.532564832880000       0.357830539292537     
  0.212023236906000       5.398303027584788E-002
 
           7 0
 s           4   1.00000000000000     
   51.0493630955799      -0.163120632101274     
   8.79112274068875      -0.199110245810007     
  0.706404222589298       0.318820477536558     
  0.269228134134116       0.127065041842404     
 p           4   1.00000000000000     
   5.82636561408000       0.737164515452096     
   1.51068960187200       0.682163716148503     
  0.532564832880000       0.357830539292537     
  0.212023236906000       5.398303027584788E-002
 
           8 0
 s           4   1.00000000000000     
   51.0493630955799      -0.163120632101274     
   8.79112274068875      -0.199110245810007     
  0.706404222589298       0.318820477536558     
  0.269228134134116       0.127065041842404     
 p           4   1.00000000000000     
   5.82636561408000       0.737164515452096     
   1.51068960187200       0.682163716148503     
  0.532564832880000       0.357830539292537     
  0.212023236906000       5.398303027584788E-002
 
           9 0
 s           4   1.00000000000000     
   51.0493630955799      -0.163120632101274     
   8.79112274068875      -0.199110245810007     
  0.706404222589298       0.318820477536558     
  0.269228134134116       0.127065041842404     
 p           4   1.00000000000000     
   5.82636561408000       0.737164515452096     
   1.51068960187200       0.682163716148503     
  0.532564832880000       0.357830539292537     
  0.212023236906000       5.398303027584788E-002
 
          10 0
 s           4   1.00000000000000     
   51.0493630955799      -0.163120632101274     
   8.79112274068875      -0.199110245810007     
  0.706404222589298       0.318820477536558     
  0.269228134134116       0.127065041842404     
 p           4   1.00000000000000     
   5.82636561408000       0.737164515452096     
   1.51068960187200       0.682163716148503     
  0.532564832880000       0.357830539292537     
  0.212023236906000       5.398303027584788E-002
 
          11 0
 s           4   1.00000000000000     
   51.0493630955799      -0.163120632101274     
   8.79112274068875      -0.199110245810007     
  0.706404222589298       0.318820477536558     
  0.269228134134116       0.127065041842404     
 p           4   1.00000000000000     
   5.82636561408000       0.737164515452096     
   1.51068960187200       0.682163716148503     
  0.532564832880000       0.357830539292537     
  0.212023236906000       5.398303027584788E-002
 
          12 0
 s           4   1.00000000000000     
   51.0493630955799      -0.163120632101274     
   8.79112274068875      -0.199110245810007     
  0.706404222589298       0.318820477536558     
  0.269228134134116       0.127065041842404     
 p           4   1.00000000000000     
   5.82636561408000       0.737164515452096     
   1.51068960187200       0.682163716148503     
  0.532564832880000       0.357830539292537     
  0.212023236906000       5.398303027584788E-002
 
          13 0
 s           4   1.00000000000000     
   51.0493630955799      -0.163120632101274     
   8.79112274068875      -0.199110245810007     
  0.706404222589298       0.318820477536558     
  0.269228134134116       0.127065041842404     
 p           4   1.00000000000000     
   5.82636561408000       0.737164515452096     
   1.51068960187200       0.682163716148503     
  0.532564832880000       0.357830539292537     
  0.212023236906000       5.398303027584788E-002
 
          14 0
 s           4   1.00000000000000     
   51.0493630955799      -0.163120632101274     
   8.79112274068875      -0.199110245810007     
  0.706404222589298       0.318820477536558     
  0.269228134134116       0.127065041842404     
 p           4   1.00000000000000     
   5.82636561408000       0.737164515452096     
   1.51068960187200       0.682163716148503     
  0.532564832880000       0.357830539292537     
  0.212023236906000       5.398303027584788E-002
 
          15 0
 s           4   1.00000000000000     
   51.0493630955799      -0.163120632101274     
   8.79112274068875      -0.199110245810007     
  0.706404222589298       0.318820477536558     
  0.269228134134116       0.127065041842404     
 p           4   1.00000000000000     
   5.82636561408000       0.737164515452096     
   1.51068960187200       0.682163716148503     
  0.532564832880000       0.357830539292537     
  0.212023236906000       5.398303027584788E-002
 
          16 0
 s           4   1.00000000000000     
   69.1379619061966      -0.204787563700778     
   11.9061291327073      -0.249970231368273     
  0.956708277443407       0.400258802406396     
  0.364625204960737       0.159522066676936     
 p           4   1.00000000000000     
   8.21241932577816        1.13215567991868     
   2.12935769970981        1.04768407822548     
  0.750664482023609       0.549565082171590     
  0.298852465432831       8.290848659276662E-002
 
          17 0
 s           4   1.00000000000000     
   51.0493630955799      -0.163120632101274     
   8.79112274068875      -0.199110245810007     
  0.706404222589298       0.318820477536558     
  0.269228134134116       0.127065041842404     
 p           4   1.00000000000000     
   5.82636561408000       0.737164515452096     
   1.51068960187200       0.682163716148503     
  0.532564832880000       0.357830539292537     
  0.212023236906000       5.398303027584788E-002
 
          18 0
 s           4   1.00000000000000     
   51.0493630955799      -0.163120632101274     
   8.79112274068875      -0.199110245810007     
  0.706404222589298       0.318820477536558     
  0.269228134134116       0.127065041842404     
 p           4   1.00000000000000     
   5.82636561408000       0.737164515452096     
   1.51068960187200       0.682163716148503     
  0.532564832880000       0.357830539292537     
  0.212023236906000       5.398303027584788E-002
 
          19 0
 s           4   1.00000000000000     
   69.1379619061966      -0.204787563700778     
   11.9061291327073      -0.249970231368273     
  0.956708277443407       0.400258802406396     
  0.364625204960737       0.159522066676936     
 p           4   1.00000000000000     
   8.21241932577816        1.13215567991868     
   2.12935769970981        1.04768407822548     
  0.750664482023609       0.549565082171590     
  0.298852465432831       8.290848659276662E-002
 
          20 0
 s           4   1.00000000000000     
   51.0493630955799      -0.163120632101274     
   8.79112274068875      -0.199110245810007     
  0.706404222589298       0.318820477536558     
  0.269228134134116       0.127065041842404     
 p           4   1.00000000000000     
   5.82636561408000       0.737164515452096     
   1.51068960187200       0.682163716148503     
  0.532564832880000       0.357830539292537     
  0.212023236906000       5.398303027584788E-002
 
          21 0
 s           4   1.00000000000000     
   51.0493630955799      -0.163120632101274     
   8.79112274068875      -0.199110245810007     
  0.706404222589298       0.318820477536558     
  0.269228134134116       0.127065041842404     
 p           4   1.00000000000000     
   5.82636561408000       0.737164515452096     
   1.51068960187200       0.682163716148503     
  0.532564832880000       0.357830539292537     
  0.212023236906000       5.398303027584788E-002
 
          22 0
 s           4   1.00000000000000     
   51.0493630955799      -0.163120632101274     
   8.79112274068875      -0.199110245810007     
  0.706404222589298       0.318820477536558     
  0.269228134134116       0.127065041842404     
 p           4   1.00000000000000     
   5.82636561408000       0.737164515452096     
   1.51068960187200       0.682163716148503     
  0.532564832880000       0.357830539292537     
  0.212023236906000       5.398303027584788E-002
 
          23 0
 s           4   1.00000000000000     
   51.0493630955799      -0.163120632101274     
   8.79112274068875      -0.199110245810007     
  0.706404222589298       0.318820477536558     
  0.269228134134116       0.127065041842404     
 p           4   1.00000000000000     
   5.82636561408000       0.737164515452096     
   1.51068960187200       0.682163716148503     
  0.532564832880000       0.357830539292537     
  0.212023236906000       5.398303027584788E-002
 
          24 0
 s           4   1.00000000000000     
   51.0493630955799      -0.163120632101274     
   8.79112274068875      -0.199110245810007     
  0.706404222589298       0.318820477536558     
  0.269228134134116       0.127065041842404     
 p           4   1.00000000000000     
   5.82636561408000       0.737164515452096     
   1.51068960187200       0.682163716148503     
  0.532564832880000       0.357830539292537     
  0.212023236906000       5.398303027584788E-002
 
          25 0
 s           4   1.00000000000000     
   51.0493630955799      -0.163120632101274     
   8.79112274068875      -0.199110245810007     
  0.706404222589298       0.318820477536558     
  0.269228134134116       0.127065041842404     
 p           4   1.00000000000000     
   5.82636561408000       0.737164515452096     
   1.51068960187200       0.682163716148503     
  0.532564832880000       0.357830539292537     
  0.212023236906000       5.398303027584788E-002
 
          26 0
 s           4   1.00000000000000     
   51.0493630955799      -0.163120632101274     
   8.79112274068875      -0.199110245810007     
  0.706404222589298       0.318820477536558     
  0.269228134134116       0.127065041842404     
 p           4   1.00000000000000     
   5.82636561408000       0.737164515452096     
   1.51068960187200       0.682163716148503     
  0.532564832880000       0.357830539292537     
  0.212023236906000       5.398303027584788E-002
 
          27 0
 s           4   1.00000000000000     
   51.0493630955799      -0.163120632101274     
   8.79112274068875      -0.199110245810007     
  0.706404222589298       0.318820477536558     
  0.269228134134116       0.127065041842404     
 p           4   1.00000000000000     
   5.82636561408000       0.737164515452096     
   1.51068960187200       0.682163716148503     
  0.532564832880000       0.357830539292537     
  0.212023236906000       5.398303027584788E-002
 
          28 0
 s           4   1.00000000000000     
   51.0493630955799      -0.163120632101274     
   8.79112274068875      -0.199110245810007     
  0.706404222589298       0.318820477536558     
  0.269228134134116       0.127065041842404     
 p           4   1.00000000000000     
   5.82636561408000       0.737164515452096     
   1.51068960187200       0.682163716148503     
  0.532564832880000       0.357830539292537     
  0.212023236906000       5.398303027584788E-002
 
          29 0
 s           4   1.00000000000000     
   51.0493630955799      -0.163120632101274     
   8.79112274068875      -0.199110245810007     
  0.706404222589298       0.318820477536558     
  0.269228134134116       0.127065041842404     
 p           4   1.00000000000000     
   5.82636561408000       0.737164515452096     
   1.51068960187200       0.682163716148503     
  0.532564832880000       0.357830539292537     
  0.212023236906000       5.398303027584788E-002
 
          30 0
 s           3   1.00000000000000     
   3.37022769753360       0.273591105889083     
  0.613891182214980       0.264605406538605     
  0.166142911484160       8.246594753408230E-002
 
          31 0
 s           3   1.00000000000000     
   3.37022769753360       0.273591105889083     
  0.613891182214980       0.264605406538605     
  0.166142911484160       8.246594753408230E-002
 
          32 0
 s           3   1.00000000000000     
   3.37022769753360       0.273591105889083     
  0.613891182214980       0.264605406538605     
  0.166142911484160       8.246594753408230E-002
 
          33 0
 s           3   1.00000000000000     
   3.37022769753360       0.273591105889083     
  0.613891182214980       0.264605406538605     
  0.166142911484160       8.246594753408230E-002
 
          34 0
 s           3   1.00000000000000     
   3.37022769753360       0.273591105889083     
  0.613891182214980       0.264605406538605     
  0.166142911484160       8.246594753408230E-002
 
          35 0
 s           3   1.00000000000000     
   3.37022769753360       0.273591105889083     
  0.613891182214980       0.264605406538605     
  0.166142911484160       8.246594753408230E-002
 
          36 0
 s           3   1.00000000000000     
   3.37022769753360       0.273591105889083     
  0.613891182214980       0.264605406538605     
  0.166142911484160       8.246594753408230E-002
 
          37 0
 s           3   1.00000000000000     
   3.37022769753360       0.273591105889083     
  0.613891182214980       0.264605406538605     
  0.166142911484160       8.246594753408230E-002
 
          38 0
 s           3   1.00000000000000     
   3.37022769753360       0.273591105889083     
  0.613891182214980       0.264605406538605     
  0.166142911484160       8.246594753408230E-002
 
          39 0
 s           3   1.00000000000000     
   3.37022769753360       0.273591105889083     
  0.613891182214980       0.264605406538605     
  0.166142911484160       8.246594753408230E-002
 
          40 0
 s           3   1.00000000000000     
   3.37022769753360       0.273591105889083     
  0.613891182214980       0.264605406538605     
  0.166142911484160       8.246594753408230E-002
 
          41 0
 s           3   1.00000000000000     
   3.37022769753360       0.273591105889083     
  0.613891182214980       0.264605406538605     
  0.166142911484160       8.246594753408230E-002
 
          42 0
 s           3   1.00000000000000     
   3.37022769753360       0.273591105889083     
  0.613891182214980       0.264605406538605     
  0.166142911484160       8.246594753408230E-002
 
          43 0
 s           3   1.00000000000000     
   3.37022769753360       0.273591105889083     
  0.613891182214980       0.264605406538605     
  0.166142911484160       8.246594753408230E-002
 
          44 0
 s           3   1.00000000000000     
   3.37022769753360       0.273591105889083     
  0.613891182214980       0.264605406538605     
  0.166142911484160       8.246594753408230E-002
 
          45 0
 s           3   1.00000000000000     
   3.37022769753360       0.273591105889083     
  0.613891182214980       0.264605406538605     
  0.166142911484160       8.246594753408230E-002
 
          46 0
 s           3   1.00000000000000     
   3.37022769753360       0.273591105889083     
  0.613891182214980       0.264605406538605     
  0.166142911484160       8.246594753408230E-002
 
          47 0
 s           3   1.00000000000000     
   3.37022769753360       0.273591105889083     
  0.613891182214980       0.264605406538605     
  0.166142911484160       8.246594753408230E-002
 
[MO]
Sym=     1a
Ene=  -0.682641839517161     
Spin= Alpha
Occup=     2.00000000
           1 -0.113277213707584     
           2 -4.520881353449892E-002
           3 -1.382196370332425E-002
           4  2.753493354088168E-002
           5 -0.208460063363196     
           6 -3.363519257925070E-002
           7  6.660274136860676E-002
           8 -1.831899709713023E-002
           9  2.439139941042446E-004
          10  1.770496684504802E-003
          11 -2.014410678609047E-003
          12 -2.091884757759760E-003
          13 -2.182361586951681E-003
          14 -2.118246840874238E-003
          15 -0.125456584718289     
          16  4.500540615719231E-003
          17 -1.051253060739456E-002
          18  2.616134430464988E-003
          19 -0.211935850436808     
          20 -3.972539361414366E-002
          21  6.612514223579515E-002
          22  3.104708461575428E-003
          23 -0.116909733585606     
          24  3.814005936536590E-002
          25  2.364468452128596E-002
          26 -3.260240578168385E-002
          27 -5.897655618523395E-002
          28  2.616367732084868E-002
          29  5.374730221593052E-003
          30 -1.952222953083764E-002
          31 -6.024237958727172E-003
          32  7.229654601732179E-003
          33  2.537673140975577E-003
          34 -5.576202923567493E-003
          35  5.831089338378016E-005
          36  1.692968077429582E-003
          37  1.176704473660519E-003
          38 -1.478002180083728E-003
          39  1.171853545397566E-003
          40 -2.692051986277268E-004
          41  9.653635110447519E-006
          42  1.823984188971609E-004
          43  5.947574884485600E-004
          44 -1.948082233507518E-004
          45 -1.699481015129584E-004
          46  1.824800766467395E-004
          47  7.622116356889189E-004
          48 -1.649764757676325E-004
          49 -2.961219941965843E-004
          50  1.982570928788980E-004
          51  1.617050649163637E-003
          52  2.015941333432689E-004
          53 -2.609254964055255E-004
          54 -5.937808348768477E-005
          55 -1.088058666793754E-003
          56  2.306711020788478E-003
          57  3.671747449354449E-003
          58 -2.589797152693099E-003
          59 -2.898365446829276E-002
          60  6.162025986616757E-003
          61  2.493936051383814E-002
          62 -1.101290164469681E-002
          63 -0.162301508891576     
          64  5.895853586170164E-002
          65  3.450546441919087E-002
          66 -5.087690010201173E-002
          67 -0.317192102338316     
          68 -6.331022767002494E-002
          69 -1.837774711975601E-002
          70  4.531178808710300E-002
          71 -0.226012187583666     
          72  3.029011835395104E-002
          73 -5.199562884151113E-002
          74 -2.516125458259548E-002
          75 -0.224141398827728     
          76  2.422697234238357E-002
          77 -4.462934081467635E-002
          78  4.118121256510576E-002
          79 -0.299867894038514     
          80  5.290527887791574E-002
          81  3.493159014862048E-002
          82 -3.868119241266476E-002
          83 -0.152277646183504     
          84 -6.536914540731034E-002
          85 -2.286794757347331E-002
          86  4.075262447363967E-002
          87 -2.698844933237633E-002
          88 -2.423770265701822E-002
          89  8.654796965137336E-003
          90  4.792243682685909E-003
          91 -9.112799882432957E-004
          92 -4.406906930244856E-003
          93  2.644886083786669E-004
          94  1.572119559309270E-003
          95  1.526559342035027E-003
          96  1.053563024773083E-004
          97 -2.825763740019862E-004
          98  1.187032435279718E-004
          99  7.139278425439283E-004
         100  3.521636679526345E-004
         101 -3.501247334357254E-005
         102 -1.101494853539785E-004
         103  5.578791760387480E-004
         104  2.676842617032168E-004
         105  5.195402098860946E-005
         106 -1.256147468139022E-004
         107  1.117866888470684E-003
         108  1.812962466561208E-004
         109  2.038574985479669E-004
         110 -1.736618107411675E-004
         111  1.864372193311823E-004
         112 -1.968646855229540E-003
         113 -5.833077935327147E-004
         114  1.085496018114216E-003
         115 -5.418312279875732E-003
         116 -6.585094737774398E-003
         117 -3.701362872202421E-003
         118  4.636784743683915E-003
         119 -5.538746343510347E-002
         120 -2.119465595291836E-002
         121 -1.524313365448689E-002
         122  1.750832900301729E-002
         123 -2.377616852098800E-002
         124 -2.437115867780283E-002
         125 -9.111586048613742E-004
         126  1.493836476128969E-004
         127  4.949860248994366E-005
         128  6.727994642371353E-005
         129  1.478363008054619E-004
         130 -2.992984335317935E-003
         131 -5.335559626952077E-002
         132 -5.318567948579735E-002
         133 -5.283497007413911E-002
         134 -5.221581819564698E-002
         135 -2.769579896931707E-003
         136  1.393151830125984E-004
         137  6.268411355636746E-005
         138  4.599371057538766E-005
         139  1.429864238718752E-004
         140 -8.362781234969092E-004
Sym=     2a
Ene=  -0.679359802224959     
Spin= Alpha
Occup=     2.00000000
           1 -4.379797529243270E-002
           2 -5.268802553030849E-002
           3  1.861470618602032E-002
           4  1.261190438139955E-002
           5 -0.170850490590680     
           6 -7.938518128111507E-002
           7  8.636867291043016E-002
           8 -8.307918789578343E-003
           9 -3.079159306792445E-003
          10  6.607416083918806E-003
          11 -3.528256777126360E-003
          12 -7.294340745449751E-003
          13  4.360237186955215E-003
          14  3.516077175160468E-004
          15  2.534305120291885E-002
          16 -2.280933631065322E-002
          17  5.887395502782282E-002
          18 -1.141878457427160E-002
          19 -0.150596534723017     
          20 -2.301267193874944E-002
          21  0.115402963295503     
          22 -2.421686945401634E-002
          23 -2.106014685351484E-002
          24  7.329449687283337E-003
          25  5.239614174354641E-002
          26 -2.094854573759498E-002
          27  5.991765661442890E-002
          28 -2.698192811127435E-002
          29  1.439524682633376E-002
          30  1.434191501785776E-002
          31  1.211173349706269E-002
          32 -9.097823834219400E-003
          33 -6.439268380197951E-004
          34  6.271627710490937E-003
          35  3.644119049670758E-003
          36 -2.765238990894403E-003
          37 -2.431022542322646E-003
          38  2.561580568145767E-003
          39 -7.736666400904940E-004
          40 -9.654213872798164E-005
          41 -2.950151170114322E-004
          42  1.480283196605297E-004
          43 -6.784295025656007E-004
          44  1.831429048771687E-004
          45  1.090259619945275E-004
          46 -1.572371659402970E-004
          47 -9.368507351724338E-004
          48  1.910496071393387E-004
          49  2.847507096364799E-004
          50 -2.130062307299173E-004
          51 -1.686132705377999E-003
          52 -2.697291737190272E-004
          53 -8.045417987960072E-005
          54  2.027813088241728E-004
          55  4.161311516503989E-003
          56 -2.960797977467685E-003
          57 -5.754992882285098E-003
          58  3.625601412880482E-003
          59  4.005695274169720E-002
          60 -6.851602325771821E-003
          61 -3.164346201100551E-002
          62  1.335485879559199E-002
          63  0.196188098307617     
          64 -6.964829540562235E-002
          65 -3.371828918502364E-002
          66  5.838568101583555E-002
          67  0.360708066444008     
          68  7.756088150234465E-002
          69  3.444755470374111E-002
          70 -5.896553324912665E-002
          71 -0.262074957375827     
          72  3.662951509441791E-002
          73 -4.020250756083730E-002
          74 -3.901833437316229E-002
          75 -0.267304811074849     
          76  1.484121491012491E-002
          77 -4.207763806544376E-002