103
 energy: -139.539159517596 gnorm: 0.000248089725 xtb: 6.7.1 (edcfbbe)
C           -7.62030817536492       -1.66149179818163        0.66066356028330
C           -6.92287128261588       -0.29852467930088        0.64774891120901
C           -7.21682621777707        0.39864059343876        1.98394775900891
C           -7.51060142731628        0.52535418306548       -0.50659629497850
C           -5.41486539727251       -0.40405086973979        0.46899015569563
C           -4.64601324861009        0.73207342629715        0.42749083566474
C           -3.25143210240598        0.67262484821395        0.27694382685154
C           -2.58062551545503       -0.58468824942122        0.17155355452239
C           -3.38970437461089       -1.76527955173799        0.20437414780915
C           -2.72350544072967       -3.12885605367825        0.07939677298443
C           -3.72340892819584       -4.29022755425717        0.09142371989859
C           -1.76402429538548       -3.32014812707260        1.26185286747124
C           -1.95136061938663       -3.18659413487859       -1.24505843122335
C           -4.75071769660095       -1.63589299855169        0.34829504545182
O           -1.29873733133476       -0.65133417287144        0.07583243134500
Co           0.00710741999586        0.60847097980553        0.00688692808080
N           -1.21747610428351        1.95827142823908        0.17051670939407
C           -2.50866146915683        1.87676800659063        0.26057453479871
C           -0.63298131101068        3.28440917769840        0.13905957415765
C           -0.51518102926586        3.81873033023889       -1.27288784882710
C           -0.68533330203777        5.17819800954091       -1.50377565890750
C           -0.53976627171522        5.69798408359392       -2.77773426232862
C           -0.22144668309291        4.86317369555303       -3.83512386578066
C           -0.05039458279579        3.50732377960910       -3.61177001131837
C           -0.19578690096607        2.98711642686370       -2.33834090146420
C            0.77349674316224        3.15271921281139        0.76538602883497
C            0.67314561159955        3.25145335549781        2.27247288611076
C            0.28255986974579        2.16250474061232        3.04117262338123
C            0.15691937392952        2.28550265671441        4.41313955408692
C            0.41936152740530        3.49628643263037        5.03172817003511
C            0.80890950183876        4.58561417031295        4.27146730957282
C            0.93434538281723        4.46353241345341        2.89896647062557
N            1.29099881616100        1.86542239234491        0.33920829297943
C            2.58122132935759        1.71910116030514        0.34097534903350
C            3.27083972448719        0.54326586302335       -0.03343777903204
C            4.67765133196946        0.53721312309885        0.00676189010852
C            5.39525999518321       -0.56423227407312       -0.37487818444456
C            6.91297114622667       -0.64022109660800       -0.32611449345494
C            7.32809629001236       -1.79057221408704        0.60202479808363
C            7.54501738251927        0.64968034893099        0.20401675732744
C            7.45461626406732       -0.89170250945039       -1.74025560549237
C            4.67115948870964       -1.68016654546846       -0.83825375462818
C            3.30267748405529       -1.73804784200208       -0.91053003349588
C            2.57498188417818       -2.97240426768087       -1.42481523466626
C            3.52721361251162       -4.08707831465292       -1.87116285014474
C            1.71334527802726       -2.57831708324304       -2.63239690070371
C            1.68750750944486       -3.52552290624565       -0.30322539177041
C            2.54208755592541       -0.60441957906575       -0.47174263245964
O            1.25617250867219       -0.61199165246613       -0.49265771057430
H           -8.69165368236426       -1.51785487953392        0.78815818043213
H           -7.46282887623276       -2.19136131217339       -0.27582043591517
H           -7.26522102242482       -2.27611277691696        1.48453503516483
H           -8.29086647752882        0.47570396796865        2.14095154636461
H           -6.79599045771849        1.39999868104383        2.00715443947381
H           -6.78694331193610       -0.16985938060366        2.80600199941978
H           -7.28596177936227        0.04989301322198       -1.45897629737294
H           -7.09970225921305        1.53086029375778       -0.52371622280329
H           -8.59131083596357        0.60047424771486       -0.40360081679887
H           -5.09572255120112        1.71106093335650        0.51292061063958
H           -4.27746290443122       -4.32895720941668        1.02685547757857
H           -4.42343094994472       -4.21885389618844       -0.73825734115151
H           -3.17858984119628       -5.22677840437087       -0.01087535381356
H           -1.01758475502267       -2.53289341439024        1.27625817100599
H           -1.25614771055251       -4.27882253818113        1.18234828243405
H           -2.31560580431929       -3.29493481399505        2.20022167931764
H           -1.18971097001406       -2.41521869729955       -1.27361372827394
H           -2.63153597553303       -3.03951794626107       -2.08233814629939
H           -1.46962265170308       -4.15549813514394       -1.35540819734700
H           -5.34535523886267       -2.53046337006925        0.37275035915384
H           -3.08148465552693        2.80298807087419        0.34477058556699
H           -1.23731816115058        3.98717082385970        0.73251116920040
H           -0.93355756096528        5.83379148465717       -0.68029990820121
H           -0.67667221009569        6.75634205124161       -2.94427928901075
H           -0.10877148968440        5.26803300788836       -4.82982776606780
H            0.19765251262632        2.85071201825151       -4.43230891924244
H           -0.06351722787430        1.92226169240493       -2.16766056207107
H            1.41817669952892        3.96551185233493        0.39906690845313
H            0.07985183230589        1.21127631188133        2.55923716394418
H           -0.14708654837909        1.43222525203375        5.00080884237527
H            0.32248046693753        3.59072711145501        6.10304579100732
H            1.01732393281761        5.53257854933751        4.74725029383850
H            1.23834133140405        5.31657854013757        2.30785298463163
H            3.19712506233786        2.57176153314954        0.63466109653406
H            5.16380540151600        1.43505449004673        0.35484043563332
H            6.95893719257955       -2.74586223294532        0.23987160721908
H            6.92899661974310       -1.62823451115321        1.60105955860145
H            8.41278715066591       -1.84775685256494        0.66768229432985
H            7.30365727361766        1.49462479603773       -0.43670916525164
H            8.62779760288698        0.54234111408550        0.22566021378171
H            7.20751872645939        0.86160306589913        1.21590291929293
H            7.09272465134416       -1.83369898509563       -2.14236795522382
H            8.54220437515420       -0.92402327084085       -1.72540020437696
H            7.14122612997394       -0.09294966064915       -2.40921840114095
H            5.23886233242259       -2.53840041494567       -1.15449552898136
H            4.13898047124573       -4.44115702167786       -1.04414423382825
H            4.17358061295240       -3.75564803933531       -2.68123796036956
H            2.94118686203906       -4.92871441271744       -2.23524295705332
H            1.18138102750461       -3.44784875362861       -3.01252935273854
H            0.98550482550880       -1.82454632682591       -2.35075257136062
H            2.34089331234507       -2.17912712759158       -3.42758324092817
H            2.29518295786723       -3.79939918597048        0.55757033679761
H            1.15518379994314       -4.40904967108234       -0.64831614662543
H            0.96265942094934       -2.77970002480080        0.00291910085098
