[Molden Format]
[Title]
[Atoms] AU
Cl     1    17 -0.10249657542036E+01 -0.35749760524994E+00 -0.41589063239091E+01
Mn     2    25 -0.74011213697690E-01 -0.25782332263062E-01 -0.29090326221373E+00
N      3     7  0.26563267164048E+01 -0.26387934005562E+01 -0.33434630869229E+00
C      4     6  0.23997372372322E+01 -0.51830954256863E+01  0.58603130380547E-01
C      5     6  0.46232575706110E+01 -0.64950762904786E+01 -0.75178732035882E+00
C      6     6  0.62403706491002E+01 -0.47263851218265E+01 -0.16480412613291E+01
C      7     6  0.50288734505082E+01 -0.23278162728196E+01 -0.13298860762187E+01
C      8     6  0.61740646931783E+01 -0.14840523881606E-01 -0.18322711764621E+01
C      9     6  0.87631694532272E+01  0.20167508921952E-01 -0.28743948829089E+01
C     10     6  0.10790984646190E+02 -0.97500690190801E+00 -0.15293571248314E+01
C     11     6  0.13200480199420E+02 -0.91876838758438E+00 -0.25415926192319E+01
C     12     6  0.13610044314532E+02  0.12091230697349E+00 -0.49079723056634E+01
C     13     6  0.11600334030187E+02  0.11184900664216E+01 -0.62559115355156E+01
C     14     6  0.91915726284157E+01  0.10785991554220E+01 -0.52440288904429E+01
C     15     6  0.50140929794703E+01  0.22982940516442E+01 -0.13483030700022E+01
C     16     6  0.63237264041840E+01  0.46659148273989E+01 -0.14218839654242E+01
C     17     6  0.46207354185304E+01  0.64725596282875E+01 -0.80781843124044E+00
C     18     6  0.22539270569311E+01  0.52156182334681E+01 -0.42053924861223E+00
N     19     7  0.25435230154377E+01  0.26512669670508E+01 -0.66309361351884E+00
C     20     6 -0.18069502905456E-01  0.64675765877854E+01  0.88767505218924E-02
C     21     6 -0.19258953401471E-01  0.92588605335199E+01  0.58714298650566E-01
C     22     6  0.68173641754494E+00  0.10638776245576E+02 -0.20671221410701E+01
C     23     6  0.68505693485305E+00  0.13251498503626E+02 -0.20023255246817E+01
C     24     6  0.68155875271638E-03  0.14515436995907E+02  0.18509301189831E+00
C     25     6 -0.70389703213498E+00  0.13154611244075E+02  0.23065929446481E+01
C     26     6 -0.72350936695503E+00  0.10541821655349E+02  0.22436896178975E+01
C     27     6 -0.23104430148672E+01  0.52132932480100E+01  0.32177201296133E+00
C     28     6 -0.47073792970450E+01  0.64646130283964E+01  0.42131692473631E+00
C     29     6 -0.64846576931217E+01  0.46400888790833E+01  0.66411534857482E+00
C     30     6 -0.51690635884995E+01  0.22780005411031E+01  0.77621952557761E+00
N     31     7 -0.26183859478627E+01  0.26509935021295E+01  0.50674647692816E+00
C     32     6 -0.63244889486752E+01 -0.38108303556499E-01  0.12405970811436E+01
C     33     6 -0.90991948090645E+01 -0.13716297171335E+00  0.15242732389496E+01
C     34     6 -0.10323522041704E+02  0.11611576570144E+01  0.34550005061651E+01
C     35     6 -0.12925173903297E+02  0.10439299834520E+01  0.36811357063145E+01
C     36     6 -0.14332280821746E+02 -0.36195067869400E+00  0.19805280168237E+01
C     37     6 -0.13125321074249E+02 -0.16645933125498E+01  0.57640130642843E-01
C     38     6 -0.10524011190647E+02 -0.15622139207111E+01 -0.16658578574834E+00
C     39     6 -0.49807043899923E+01 -0.22867470605940E+01  0.15052283310698E+01
N     40     7 -0.24609403993779E+01 -0.26229109780113E+01  0.10199071691700E+01
C     41     6 -0.19903395408462E+01 -0.51240935725260E+01  0.15118411842946E+01
C     42     6  0.27157883867637E+00 -0.63797441892071E+01  0.10414963910126E+01
C     43     6  0.40883543944291E+00 -0.91243503896235E+01  0.15331306809556E+01
C     44     6  0.20984148233095E+01 -0.10063821563612E+02  0.33162578924055E+01
C     45     6  0.22226115457019E+01 -0.12629812392548E+02  0.37965184312579E+01
C     46     6  0.67551810685515E+00 -0.14287926865373E+02  0.24902945119052E+01
C     47     6 -0.99816577838786E+00 -0.13368361926017E+02  0.70043476836242E+00
C     48     6 -0.11375506541955E+01 -0.10801970196670E+02  0.22596323626378E+00
C     49     6 -0.42167456993020E+01 -0.63313979073035E+01  0.24694409549725E+01
C     50     6 -0.60810123798731E+01 -0.45808111526623E+01  0.24287356495229E+01
H     51     1  0.48724958761944E+01 -0.85048796179897E+01 -0.68282613385773E+00
H     52     1  0.80763670716091E+01 -0.50028366448187E+01 -0.24582248419375E+01
H     53     1  0.10473228885471E+02 -0.17682989645430E+01  0.32523149860989E+00
H     54     1  0.14764104297200E+02 -0.16901426410186E+01 -0.14797039807675E+01
H     55     1  0.15491378027029E+02  0.15637604738734E+00 -0.56978657940342E+01
H     56     1  0.11911041785435E+02  0.19332735596437E+01 -0.81013349576700E+01
H     57     1  0.76161040272443E+01  0.18457151295694E+01 -0.62906162768602E+01
H     58     1  0.82942481141115E+01  0.48854760853382E+01 -0.18407909787940E+01
H     59     1  0.49188380533813E+01  0.84682143432486E+01 -0.62431271832138E+00
H     60     1  0.11979973036607E+01  0.96472286107460E+01 -0.37749658265479E+01
H     61     1  0.12247580354735E+01  0.14305320117277E+02 -0.36650069737122E+01
H     62     1  0.13409005881719E-01  0.16555507196469E+02  0.23566926519282E+00
H     63     1 -0.12395836131628E+01  0.14131889985754E+02  0.40169171583975E+01
H     64     1 -0.12649753559649E+01  0.94768627053204E+01  0.38997711152095E+01
H     65     1 -0.49753431662658E+01  0.84676017130833E+01  0.27145080737754E+00
H     66     1 -0.84970477657630E+01  0.48553739051886E+01  0.75058032409318E+00
H     67     1 -0.92231490722855E+01  0.22406560177772E+01  0.47942280911200E+01
H     68     1 -0.13857662794489E+02  0.20537268012071E+01  0.51905312823458E+01
H     69     1 -0.16363824815913E+02 -0.44460065003198E+00  0.21557155964387E+01
H     70     1 -0.14214639104607E+02 -0.27649084802511E+01 -0.12722434437997E+01
H     71     1 -0.95744048765639E+01 -0.25648478001728E+01 -0.16695084725447E+01
H     72     1  0.32988847268206E+01 -0.87664937721353E+01  0.43388597988511E+01
H     73     1  0.35313629251191E+01 -0.13337797822364E+02  0.51940797860840E+01
H     74     1  0.77631186744632E+00 -0.16291537657411E+02  0.28643990192423E+01
H     75     1 -0.22003900086212E+01 -0.14655875093386E+02 -0.33072342036507E+00
H     76     1 -0.24275532490951E+01 -0.10080599940194E+02 -0.11818388086090E+01
H     77     1 -0.43169911510646E+01 -0.82577199780592E+01  0.30895366152589E+01
H     78     1 -0.80115261609693E+01 -0.47861248627307E+01  0.30098992135514E+01
[GTO]
           1 0
 s           4   1.00000000000000     
   9.34674866189868      -0.125552785052236     
   2.63274953955161      -0.254029831967196     
  0.472092932487140       0.305184566430756     
  0.232271649766237       8.559661830788402E-002
 p           4   1.00000000000000     
   8.96653868620652      -0.317209215069455     
  0.926601749794952       0.357031126383567     
  0.418792332287928       0.280771537007085     
  0.202453454537036       4.152131922185704E-002
 d           3   1.00000000000000     
   3.20597745654841        2.13231494102881     
   1.00523897559031       0.971375176087545     
  0.391565355448865       0.129419082352652     
 
           2 0
 d           3   1.00000000000000     
   1.76892529405946       0.753203186464612     
  0.554649143544052       0.343121395345453     
  0.216049510927190       4.571504112348031E-002
 s           4   1.00000000000000     
  0.484305021910859      -4.636945981592795E-002
  0.248442799050972      -7.136369519894825E-002
  7.589881167859050E-002  9.182435292585470E-002
  4.225913696210080E-002  2.336808306286595E-002
 p           4   1.00000000000000     
   2.29582980380542      -2.431126590809542E-002
  0.665645507926723      -5.153561953043185E-002
  0.116177604559644       6.237420692152191E-002
  5.700740464231208E-002  1.635055439582586E-002
 
           3 0
 s           4   1.00000000000000     
   63.5940244669410      -0.192343884147216     
   10.9514172315237      -0.234781079249537     
  0.879993102573770       0.375937539017009     
  0.335387152965211       0.149828892718628     
 p           4   1.00000000000000     
   7.29650404814951       0.976586663156674     
   1.89187454507126       0.903722267303458     
  0.666944321108241       0.474049584615364     
  0.265522026741309       7.151606771501186E-002
 
           4 0
 s           4   1.00000000000000     
   51.0493630955799      -0.163120632101274     
   8.79112274068875      -0.199110245810007     
  0.706404222589298       0.318820477536558     
  0.269228134134116       0.127065041842404     
 p           4   1.00000000000000     
   5.82636561408000       0.737164515452096     
   1.51068960187200       0.682163716148503     
  0.532564832880000       0.357830539292537     
  0.212023236906000       5.398303027584788E-002
 
           5 0
 s           4   1.00000000000000     
   51.0493630955799      -0.163120632101274     
   8.79112274068875      -0.199110245810007     
  0.706404222589298       0.318820477536558     
  0.269228134134116       0.127065041842404     
 p           4   1.00000000000000     
   5.82636561408000       0.737164515452096     
   1.51068960187200       0.682163716148503     
  0.532564832880000       0.357830539292537     
  0.212023236906000       5.398303027584788E-002
 
           6 0
 s           4   1.00000000000000     
   51.0493630955799      -0.163120632101274     
   8.79112274068875      -0.199110245810007     
  0.706404222589298       0.318820477536558     
  0.269228134134116       0.127065041842404     
 p           4   1.00000000000000     
   5.82636561408000       0.737164515452096     
   1.51068960187200       0.682163716148503     
  0.532564832880000       0.357830539292537     
  0.212023236906000       5.398303027584788E-002
 
           7 0
 s           4   1.00000000000000     
   51.0493630955799      -0.163120632101274     
   8.79112274068875      -0.199110245810007     
  0.706404222589298       0.318820477536558     
  0.269228134134116       0.127065041842404     
 p           4   1.00000000000000     
   5.82636561408000       0.737164515452096     
   1.51068960187200       0.682163716148503     
  0.532564832880000       0.357830539292537     
  0.212023236906000       5.398303027584788E-002
 
           8 0
 s           4   1.00000000000000     
   51.0493630955799      -0.163120632101274     
   8.79112274068875      -0.199110245810007     
  0.706404222589298       0.318820477536558     
  0.269228134134116       0.127065041842404     
 p           4   1.00000000000000     
   5.82636561408000       0.737164515452096     
   1.51068960187200       0.682163716148503     
  0.532564832880000       0.357830539292537     
  0.212023236906000       5.398303027584788E-002
 
           9 0
 s           4   1.00000000000000     
   51.0493630955799      -0.163120632101274     
   8.79112274068875      -0.199110245810007     
  0.706404222589298       0.318820477536558     
  0.269228134134116       0.127065041842404     
 p           4   1.00000000000000     
   5.82636561408000       0.737164515452096     
   1.51068960187200       0.682163716148503     
  0.532564832880000       0.357830539292537     
  0.212023236906000       5.398303027584788E-002
 
          10 0
 s           4   1.00000000000000     
   51.0493630955799      -0.163120632101274     
   8.79112274068875      -0.199110245810007     
  0.706404222589298       0.318820477536558     
  0.269228134134116       0.127065041842404     
 p           4   1.00000000000000     
   5.82636561408000       0.737164515452096     
   1.51068960187200       0.682163716148503     
  0.532564832880000       0.357830539292537     
  0.212023236906000       5.398303027584788E-002
 
          11 0
 s           4   1.00000000000000     
   51.0493630955799      -0.163120632101274     
   8.79112274068875      -0.199110245810007     
  0.706404222589298       0.318820477536558     
  0.269228134134116       0.127065041842404     
 p           4   1.00000000000000     
   5.82636561408000       0.737164515452096     
   1.51068960187200       0.682163716148503     
  0.532564832880000       0.357830539292537     
  0.212023236906000       5.398303027584788E-002
 
          12 0
 s           4   1.00000000000000     
   51.0493630955799      -0.163120632101274     
   8.79112274068875      -0.199110245810007     
  0.706404222589298       0.318820477536558     
  0.269228134134116       0.127065041842404     
 p           4   1.00000000000000     
   5.82636561408000       0.737164515452096     
   1.51068960187200       0.682163716148503     
  0.532564832880000       0.357830539292537     
  0.212023236906000       5.398303027584788E-002
 
          13 0
 s           4   1.00000000000000     
   51.0493630955799      -0.163120632101274     
   8.79112274068875      -0.199110245810007     
  0.706404222589298       0.318820477536558     
  0.269228134134116       0.127065041842404     
 p           4   1.00000000000000     
   5.82636561408000       0.737164515452096     
   1.51068960187200       0.682163716148503     
  0.532564832880000       0.357830539292537     
  0.212023236906000       5.398303027584788E-002
 
          14 0
 s           4   1.00000000000000     
   51.0493630955799      -0.163120632101274     
   8.79112274068875      -0.199110245810007     
  0.706404222589298       0.318820477536558     
  0.269228134134116       0.127065041842404     
 p           4   1.00000000000000     
   5.82636561408000       0.737164515452096     
   1.51068960187200       0.682163716148503     
  0.532564832880000       0.357830539292537     
  0.212023236906000       5.398303027584788E-002
 
          15 0
 s           4   1.00000000000000     
   51.0493630955799      -0.163120632101274     
   8.79112274068875      -0.199110245810007     
  0.706404222589298       0.318820477536558     
  0.269228134134116       0.127065041842404     
 p           4   1.00000000000000     
   5.82636561408000       0.737164515452096     
   1.51068960187200       0.682163716148503     
  0.532564832880000       0.357830539292537     
  0.212023236906000       5.398303027584788E-002
 
          16 0
 s           4   1.00000000000000     
   51.0493630955799      -0.163120632101274     
   8.79112274068875      -0.199110245810007     
  0.706404222589298       0.318820477536558     
  0.269228134134116       0.127065041842404     
 p           4   1.00000000000000     
   5.82636561408000       0.737164515452096     
   1.51068960187200       0.682163716148503     
  0.532564832880000       0.357830539292537     
  0.212023236906000       5.398303027584788E-002
 
          17 0
 s           4   1.00000000000000     
   51.0493630955799      -0.163120632101274     
   8.79112274068875      -0.199110245810007     
  0.706404222589298       0.318820477536558     
  0.269228134134116       0.127065041842404     
 p           4   1.00000000000000     
   5.82636561408000       0.737164515452096     
   1.51068960187200       0.682163716148503     
  0.532564832880000       0.357830539292537     
  0.212023236906000       5.398303027584788E-002
 
          18 0
 s           4   1.00000000000000     
   51.0493630955799      -0.163120632101274     
   8.79112274068875      -0.199110245810007     
  0.706404222589298       0.318820477536558     
  0.269228134134116       0.127065041842404     
 p           4   1.00000000000000     
   5.82636561408000       0.737164515452096     
   1.51068960187200       0.682163716148503     
  0.532564832880000       0.357830539292537     
  0.212023236906000       5.398303027584788E-002
 
          19 0
 s           4   1.00000000000000     
   63.5940244669410      -0.192343884147216     
   10.9514172315237      -0.234781079249537     
  0.879993102573770       0.375937539017009     
  0.335387152965211       0.149828892718628     
 p           4   1.00000000000000     
   7.29650404814951       0.976586663156674     
   1.89187454507126       0.903722267303458     
  0.666944321108241       0.474049584615364     
  0.265522026741309       7.151606771501186E-002
 
          20 0
 s           4   1.00000000000000     
   51.0493630955799      -0.163120632101274     
   8.79112274068875      -0.199110245810007     
  0.706404222589298       0.318820477536558     
  0.269228134134116       0.127065041842404     
 p           4   1.00000000000000     
   5.82636561408000       0.737164515452096     
   1.51068960187200       0.682163716148503     
  0.532564832880000       0.357830539292537     
  0.212023236906000       5.398303027584788E-002
 
          21 0
 s           4   1.00000000000000     
   51.0493630955799      -0.163120632101274     
   8.79112274068875      -0.199110245810007     
  0.706404222589298       0.318820477536558     
  0.269228134134116       0.127065041842404     
 p           4   1.00000000000000     
   5.82636561408000       0.737164515452096     
   1.51068960187200       0.682163716148503     
  0.532564832880000       0.357830539292537     
  0.212023236906000       5.398303027584788E-002
 
          22 0
 s           4   1.00000000000000     
   51.0493630955799      -0.163120632101274     
   8.79112274068875      -0.199110245810007     
  0.706404222589298       0.318820477536558     
  0.269228134134116       0.127065041842404     
 p           4   1.00000000000000     
   5.82636561408000       0.737164515452096     
   1.51068960187200       0.682163716148503     
  0.532564832880000       0.357830539292537     
  0.212023236906000       5.398303027584788E-002
 
          23 0
 s           4   1.00000000000000     
   51.0493630955799      -0.163120632101274     
   8.79112274068875      -0.199110245810007     
  0.706404222589298       0.318820477536558     
  0.269228134134116       0.127065041842404     
 p           4   1.00000000000000     
   5.82636561408000       0.737164515452096     
   1.51068960187200       0.682163716148503     
  0.532564832880000       0.357830539292537     
  0.212023236906000       5.398303027584788E-002
 
          24 0
 s           4   1.00000000000000     
   51.0493630955799      -0.163120632101274     
   8.79112274068875      -0.199110245810007     
  0.706404222589298       0.318820477536558     
  0.269228134134116       0.127065041842404     
 p           4   1.00000000000000     
   5.82636561408000       0.737164515452096     
   1.51068960187200       0.682163716148503     
  0.532564832880000       0.357830539292537     
  0.212023236906000       5.398303027584788E-002
 
          25 0
 s           4   1.00000000000000     
   51.0493630955799      -0.163120632101274     
   8.79112274068875      -0.199110245810007     
  0.706404222589298       0.318820477536558     
  0.269228134134116       0.127065041842404     
 p           4   1.00000000000000     
   5.82636561408000       0.737164515452096     
   1.51068960187200       0.682163716148503     
  0.532564832880000       0.357830539292537     
  0.212023236906000       5.398303027584788E-002
 
          26 0
 s           4   1.00000000000000     
   51.0493630955799      -0.163120632101274     
   8.79112274068875      -0.199110245810007     
  0.706404222589298       0.318820477536558     
  0.269228134134116       0.127065041842404     
 p           4   1.00000000000000     
   5.82636561408000       0.737164515452096     
   1.51068960187200       0.682163716148503     
  0.532564832880000       0.357830539292537     
  0.212023236906000       5.398303027584788E-002
 
          27 0
 s           4   1.00000000000000     
   51.0493630955799      -0.163120632101274     
   8.79112274068875      -0.199110245810007     
  0.706404222589298       0.318820477536558     
  0.269228134134116       0.127065041842404     
 p           4   1.00000000000000     
   5.82636561408000       0.737164515452096     
   1.51068960187200       0.682163716148503     
  0.532564832880000       0.357830539292537     
  0.212023236906000       5.398303027584788E-002
 
          28 0
 s           4   1.00000000000000     
   51.0493630955799      -0.163120632101274     
   8.79112274068875      -0.199110245810007     
  0.706404222589298       0.318820477536558     
  0.269228134134116       0.127065041842404     
 p           4   1.00000000000000     
   5.82636561408000       0.737164515452096     
   1.51068960187200       0.682163716148503     
  0.532564832880000       0.357830539292537     
  0.212023236906000       5.398303027584788E-002
 
          29 0
 s           4   1.00000000000000     
   51.0493630955799      -0.163120632101274     
   8.79112274068875      -0.199110245810007     
  0.706404222589298       0.318820477536558     
  0.269228134134116       0.127065041842404     
 p           4   1.00000000000000     
   5.82636561408000       0.737164515452096     
   1.51068960187200       0.682163716148503     
  0.532564832880000       0.357830539292537     
  0.212023236906000       5.398303027584788E-002
 
          30 0
 s           4   1.00000000000000     
   51.0493630955799      -0.163120632101274     
   8.79112274068875      -0.199110245810007     
  0.706404222589298       0.318820477536558     
  0.269228134134116       0.127065041842404     
 p           4   1.00000000000000     
   5.82636561408000       0.737164515452096     
   1.51068960187200       0.682163716148503     
  0.532564832880000       0.357830539292537     
  0.212023236906000       5.398303027584788E-002
 
          31 0
 s           4   1.00000000000000     
   63.5940244669410      -0.192343884147216     
   10.9514172315237      -0.234781079249537     
  0.879993102573770       0.375937539017009     
  0.335387152965211       0.149828892718628     
 p           4   1.00000000000000     
   7.29650404814951       0.976586663156674     
   1.89187454507126       0.903722267303458     
  0.666944321108241       0.474049584615364     
  0.265522026741309       7.151606771501186E-002
 
          32 0
 s           4   1.00000000000000     
   51.0493630955799      -0.163120632101274     
   8.79112274068875      -0.199110245810007     
  0.706404222589298       0.318820477536558     
  0.269228134134116       0.127065041842404     
 p           4   1.00000000000000     
   5.82636561408000       0.737164515452096     
   1.51068960187200       0.682163716148503     
  0.532564832880000       0.357830539292537     
  0.212023236906000       5.398303027584788E-002
 
          33 0
 s           4   1.00000000000000     
   51.0493630955799      -0.163120632101274     
   8.79112274068875      -0.199110245810007     
  0.706404222589298       0.318820477536558     
  0.269228134134116       0.127065041842404     
 p           4   1.00000000000000     
   5.82636561408000       0.737164515452096     
   1.51068960187200       0.682163716148503     
  0.532564832880000       0.357830539292537     
  0.212023236906000       5.398303027584788E-002
 
          34 0
 s           4   1.00000000000000     
   51.0493630955799      -0.163120632101274     
   8.79112274068875      -0.199110245810007     
  0.706404222589298       0.318820477536558     
  0.269228134134116       0.127065041842404     
 p           4   1.00000000000000     
   5.82636561408000       0.737164515452096     
   1.51068960187200       0.682163716148503     
  0.532564832880000       0.357830539292537     
  0.212023236906000       5.398303027584788E-002
 
          35 0
 s           4   1.00000000000000     
   51.0493630955799      -0.163120632101274     
   8.79112274068875      -0.199110245810007     
  0.706404222589298       0.318820477536558     
  0.269228134134116       0.127065041842404     
 p           4   1.00000000000000     
   5.82636561408000       0.737164515452096     
   1.51068960187200       0.682163716148503     
  0.532564832880000       0.357830539292537     
  0.212023236906000       5.398303027584788E-002
 
          36 0
 s           4   1.00000000000000     
   51.0493630955799      -0.163120632101274     
   8.79112274068875      -0.199110245810007     
  0.706404222589298       0.318820477536558     
  0.269228134134116       0.127065041842404     
 p           4   1.00000000000000     
   5.82636561408000       0.737164515452096     
   1.51068960187200       0.682163716148503     
  0.532564832880000       0.357830539292537     
  0.212023236906000       5.398303027584788E-002
 
          37 0
 s           4   1.00000000000000     
   51.0493630955799      -0.163120632101274     
   8.79112274068875      -0.199110245810007     
  0.706404222589298       0.318820477536558     
  0.269228134134116       0.127065041842404     
 p           4   1.00000000000000     
   5.82636561408000       0.737164515452096     
   1.51068960187200       0.682163716148503     
  0.532564832880000       0.357830539292537     
  0.212023236906000       5.398303027584788E-002
 
          38 0
 s           4   1.00000000000000     
   51.0493630955799      -0.163120632101274     
   8.79112274068875      -0.199110245810007     
  0.706404222589298       0.318820477536558     
  0.269228134134116       0.127065041842404     
 p           4   1.00000000000000     
   5.82636561408000       0.737164515452096     
   1.51068960187200       0.682163716148503     
  0.532564832880000       0.357830539292537     
  0.212023236906000       5.398303027584788E-002
 
          39 0
 s           4   1.00000000000000     
   51.0493630955799      -0.163120632101274     
   8.79112274068875      -0.199110245810007     
  0.706404222589298       0.318820477536558     
  0.269228134134116       0.127065041842404     
 p           4   1.00000000000000     
   5.82636561408000       0.737164515452096     
   1.51068960187200       0.682163716148503     
  0.532564832880000       0.357830539292537     
  0.212023236906000       5.398303027584788E-002
 
          40 0
 s           4   1.00000000000000     
   63.5940244669410      -0.192343884147216     
   10.9514172315237      -0.234781079249537     
  0.879993102573770       0.375937539017009     
  0.335387152965211       0.149828892718628     
 p           4   1.00000000000000     
   7.29650404814951       0.976586663156674     
   1.89187454507126       0.903722267303458     
  0.666944321108241       0.474049584615364     
  0.265522026741309       7.151606771501186E-002
 
          41 0
 s           4   1.00000000000000     
   51.0493630955799      -0.163120632101274     
   8.79112274068875      -0.199110245810007     
  0.706404222589298       0.318820477536558     
  0.269228134134116       0.127065041842404     
 p           4   1.00000000000000     
   5.82636561408000       0.737164515452096     
   1.51068960187200       0.682163716148503     
  0.532564832880000       0.357830539292537     
  0.212023236906000       5.398303027584788E-002
 
          42 0
 s           4   1.00000000000000     
   51.0493630955799      -0.163120632101274     
   8.79112274068875      -0.199110245810007     
  0.706404222589298       0.318820477536558     
  0.269228134134116       0.127065041842404     
 p           4   1.00000000000000     
   5.82636561408000       0.737164515452096     
   1.51068960187200       0.682163716148503     
  0.532564832880000       0.357830539292537     
  0.212023236906000       5.398303027584788E-002
 
          43 0
 s           4   1.00000000000000     
   51.0493630955799      -0.163120632101274     
   8.79112274068875      -0.199110245810007     
  0.706404222589298       0.318820477536558     
  0.269228134134116       0.127065041842404     
 p           4   1.00000000000000     
   5.82636561408000       0.737164515452096     
   1.51068960187200       0.682163716148503     
  0.532564832880000       0.357830539292537     
  0.212023236906000       5.398303027584788E-002
 
          44 0
 s           4   1.00000000000000     
   51.0493630955799      -0.163120632101274     
   8.79112274068875      -0.199110245810007     
  0.706404222589298       0.318820477536558     
  0.269228134134116       0.127065041842404     
 p           4   1.00000000000000     
   5.82636561408000       0.737164515452096     
   1.51068960187200       0.682163716148503     
  0.532564832880000       0.357830539292537     
  0.212023236906000       5.398303027584788E-002
 
          45 0
 s           4   1.00000000000000     
   51.0493630955799      -0.163120632101274     
   8.79112274068875      -0.199110245810007     
  0.706404222589298       0.318820477536558     
  0.269228134134116       0.127065041842404     
 p           4   1.00000000000000     
   5.82636561408000       0.737164515452096     
   1.51068960187200       0.682163716148503     
  0.532564832880000       0.357830539292537     
  0.212023236906000       5.398303027584788E-002
 
          46 0
 s           4   1.00000000000000     
   51.0493630955799      -0.163120632101274     
   8.79112274068875      -0.199110245810007     
  0.706404222589298       0.318820477536558     
  0.269228134134116       0.127065041842404     
 p           4   1.00000000000000     
   5.82636561408000       0.737164515452096     
   1.51068960187200       0.682163716148503     
  0.532564832880000       0.357830539292537     
  0.212023236906000       5.398303027584788E-002
 
          47 0
 s           4   1.00000000000000     
   51.0493630955799      -0.163120632101274     
   8.79112274068875      -0.199110245810007     
  0.706404222589298       0.318820477536558     
  0.269228134134116       0.127065041842404     
 p           4   1.00000000000000     
   5.82636561408000       0.737164515452096     
   1.51068960187200       0.682163716148503     
  0.532564832880000       0.357830539292537     
  0.212023236906000       5.398303027584788E-002
 
          48 0
 s           4   1.00000000000000     
   51.0493630955799      -0.163120632101274     
   8.79112274068875      -0.199110245810007     
  0.706404222589298       0.318820477536558     
  0.269228134134116       0.127065041842404     
 p           4   1.00000000000000     
   5.82636561408000       0.737164515452096     