35
 energy: -75.296053662370 gnorm: 0.000361883707 xtb: 6.7.1 (edcfbbe)
Cl          -6.05773340391304       -0.66410091659768       -3.67678281467802
C           -4.67918909104756       -0.69615167535191       -2.63795813547582
C           -4.62754576351794       -1.65131483969657       -1.61495918191756
C           -3.54346423661724       -1.68599058926158       -0.77701547264487
Cl          -3.45510345501411       -2.84800781281464        0.48481241878247
C           -2.44601894808122       -0.78186614679949       -0.91362180615727
C           -2.53543362871007        0.17334734085017       -1.97456427490215
C           -3.65947318614282        0.20179105113444       -2.81877041745901
C           -1.48204185626407        1.10491979917924       -2.15285651742919
N           -0.41655984494825        1.16866804456343       -1.41300862424004
Co           0.07088359536456        0.10015471913482       -0.01592787781262
N            1.44792194586308        1.25884122180920        0.28401110758249
C            2.41472262196470        1.16360236504368        1.14641248144781
C            2.62244100358507        0.05883551070261        2.00962360247018
C            3.70592369031137        0.05141680309471        2.90578598347169
C            3.90832677990303       -1.02305161309185        3.73248000215290
Cl           5.23137209559350       -1.02725452732093        4.84183595700950
C            3.05468623378214       -2.13282853737443        3.69652406955190
C            1.99966626477002       -2.14591147301178        2.82153374008672
Cl           0.93809359285076       -3.49432350169418        2.75798190216913
C            1.72468478359609       -1.05287683268045        1.94385294447583
O            0.73296895579887       -1.10439932011250        1.14307733840011
C            1.36864759862187        2.48379973160194       -0.49599479465094
C            0.58262905208434        2.16520222086240       -1.76323338235614
O           -1.46227053804737       -0.83716315789568       -0.10323172318740
H           -5.43602025182261       -2.35289791235191       -1.48671564195230
H           -3.71151092508207        0.93442597250949       -3.60936639540845
H           -1.59322473866115        1.81473122284398       -2.97329165050007
H            3.13089276753943        1.98245003220811        1.22253581176223
H            4.37333753106917        0.89881270638344        2.93928904176131
H            3.22765171377789       -2.97126329654345        4.35183286418011
H            0.82903313236353        3.23564050814623        0.09209229364599
H            2.36500525814095        2.87539019068565       -0.72950574414698
H            1.25478020176011        1.73265684971682       -2.51384751175420
H            0.12192104912011        3.06471586214302       -2.18693511021816
