[Molden Format]
[Title]
[Atoms] AU
Cl     1    17 -0.11447457069360E+02 -0.12549688514790E+01 -0.69481125394525E+01
C      2     6 -0.88423858673915E+01 -0.13155360076108E+01 -0.49850184042637E+01
C      3     6 -0.87447941221965E+01 -0.31205327925480E+01 -0.30518305562653E+01
C      4     6 -0.66961769395938E+01 -0.31860604623918E+01 -0.14683464378913E+01
Cl     5    17 -0.65291992622065E+01 -0.53819547669989E+01  0.91616269331366E+00
C      6     6 -0.46223059075057E+01 -0.14775128835633E+01 -0.17264949951183E+01
C      7     6 -0.47912751654146E+01  0.32757899863805E+00 -0.37313856950248E+01
C      8     6 -0.69154020822021E+01  0.38132982104337E+00 -0.53267040971796E+01
C      9     6 -0.28006532135632E+01  0.20879958101194E+01 -0.40683092035453E+01
N     10     7 -0.78718402146655E+00  0.22084625348206E+01 -0.26701993115404E+01
Co    11    27  0.13395058196743E+00  0.18926498925309E+00 -0.30099326812270E-01
N     12     7  0.27361759275087E+01  0.23788651436020E+01  0.53670320968102E+00
C     13     6  0.45631644224387E+01  0.21988897878932E+01  0.21664056157829E+01
C     14     6  0.49556952747506E+01  0.11118300163011E+00  0.37976382222417E+01
C     15     6  0.70031808134312E+01  0.97163676052539E-01  0.54911396855224E+01
C     16     6  0.73856672195364E+01 -0.19332873600948E+01  0.70533649696917E+01
Cl    17    17  0.98858605166534E+01 -0.19412297169130E+01  0.91497438990875E+01
C     18     6  0.57725203784965E+01 -0.40304618064125E+01  0.69854181045205E+01
C     19     6  0.37788215810581E+01 -0.40551849716731E+01  0.53319260201399E+01
Cl    20    17  0.17727399697491E+01 -0.66033144090267E+01  0.52118304517594E+01
C     21     6  0.32591818922969E+01 -0.19896488567239E+01  0.36733496915963E+01
O     22     8  0.13851105843089E+01 -0.20870122472296E+01  0.21601031088363E+01
C     23     6  0.25863691225148E+01  0.46937012411334E+01 -0.93729432112763E+00
C     24     6  0.11010093406866E+01  0.40916392018499E+01 -0.33320281864413E+01
O     25     8 -0.27632908370109E+01 -0.15820090900452E+01 -0.19507968419682E+00
H     26     1 -0.10272589483835E+02 -0.44463326535363E+01 -0.28094853884791E+01
H     27     1 -0.70137391569418E+01  0.17658091717750E+01 -0.68207139707305E+01
H     28     1 -0.30107584110395E+01  0.34293450009727E+01 -0.56187069080658E+01
H     29     1  0.59165298562045E+01  0.37462876166183E+01  0.23102578617711E+01
H     30     1  0.82644101842445E+01  0.16985098523936E+01  0.55544512900269E+01
H     31     1  0.60993777647020E+01 -0.56148738746040E+01  0.82237722534230E+01
H     32     1  0.15666455684033E+01  0.61144743981241E+01  0.17402921317904E+00
H     33     1  0.44692122211737E+01  0.54336999618160E+01 -0.13785660627752E+01
H     34     1  0.23711909279226E+01  0.32742469139124E+01 -0.47504833162740E+01
H     35     1  0.23039739166340E+00  0.57914736292303E+01 -0.41327084106289E+01
[GTO]
           1 0
 s           4   1.00000000000000     
   9.34674866189868      -0.125552785052236     
   2.63274953955161      -0.254029831967196     
  0.472092932487140       0.305184566430756     
  0.232271649766237       8.559661830788402E-002
 p           4   1.00000000000000     
   8.96653868620652      -0.317209215069455     
  0.926601749794952       0.357031126383567     
  0.418792332287928       0.280771537007085     
  0.202453454537036       4.152131922185704E-002
 d           3   1.00000000000000     
   3.20597745654841        2.13231494102881     
   1.00523897559031       0.971375176087545     
  0.391565355448865       0.129419082352652     
 
           2 0
 s           4   1.00000000000000     
   51.0493630955799      -0.163120632101274     
   8.79112274068875      -0.199110245810007     
  0.706404222589298       0.318820477536558     
  0.269228134134116       0.127065041842404     
 p           4   1.00000000000000     
   5.82636561408000       0.737164515452096     
   1.51068960187200       0.682163716148503     
  0.532564832880000       0.357830539292537     
  0.212023236906000       5.398303027584788E-002
 
           3 0
 s           4   1.00000000000000     
   51.0493630955799      -0.163120632101274     
   8.79112274068875      -0.199110245810007     
  0.706404222589298       0.318820477536558     
  0.269228134134116       0.127065041842404     
 p           4   1.00000000000000     
   5.82636561408000       0.737164515452096     
   1.51068960187200       0.682163716148503     
  0.532564832880000       0.357830539292537     
  0.212023236906000       5.398303027584788E-002
 
           4 0
 s           4   1.00000000000000     
   51.0493630955799      -0.163120632101274     
   8.79112274068875      -0.199110245810007     
  0.706404222589298       0.318820477536558     
  0.269228134134116       0.127065041842404     
 p           4   1.00000000000000     
   5.82636561408000       0.737164515452096     
   1.51068960187200       0.682163716148503     
  0.532564832880000       0.357830539292537     
  0.212023236906000       5.398303027584788E-002
 
           5 0
 s           4   1.00000000000000     
   9.34674866189868      -0.125552785052236     
   2.63274953955161      -0.254029831967196     
  0.472092932487140       0.305184566430756     
  0.232271649766237       8.559661830788402E-002
 p           4   1.00000000000000     
   8.96653868620652      -0.317209215069455     
  0.926601749794952       0.357031126383567     
  0.418792332287928       0.280771537007085     
  0.202453454537036       4.152131922185704E-002
 d           3   1.00000000000000     
   3.20597745654841        2.13231494102881     
   1.00523897559031       0.971375176087545     
  0.391565355448865       0.129419082352652     
 
           6 0
 s           4   1.00000000000000     
   51.0493630955799      -0.163120632101274     
   8.79112274068875      -0.199110245810007     
  0.706404222589298       0.318820477536558     
  0.269228134134116       0.127065041842404     
 p           4   1.00000000000000     
   5.82636561408000       0.737164515452096     
   1.51068960187200       0.682163716148503     
  0.532564832880000       0.357830539292537     
  0.212023236906000       5.398303027584788E-002
 
           7 0
 s           4   1.00000000000000     
   51.0493630955799      -0.163120632101274     
   8.79112274068875      -0.199110245810007     
  0.706404222589298       0.318820477536558     
  0.269228134134116       0.127065041842404     
 p           4   1.00000000000000     
   5.82636561408000       0.737164515452096     
   1.51068960187200       0.682163716148503     
  0.532564832880000       0.357830539292537     
  0.212023236906000       5.398303027584788E-002
 
           8 0
 s           4   1.00000000000000     
   51.0493630955799      -0.163120632101274     
   8.79112274068875      -0.199110245810007     
  0.706404222589298       0.318820477536558     
  0.269228134134116       0.127065041842404     
 p           4   1.00000000000000     
   5.82636561408000       0.737164515452096     
   1.51068960187200       0.682163716148503     
  0.532564832880000       0.357830539292537     
  0.212023236906000       5.398303027584788E-002
 
           9 0
 s           4   1.00000000000000     
   51.0493630955799      -0.163120632101274     
   8.79112274068875      -0.199110245810007     
  0.706404222589298       0.318820477536558     
  0.269228134134116       0.127065041842404     
 p           4   1.00000000000000     
   5.82636561408000       0.737164515452096     
   1.51068960187200       0.682163716148503     
  0.532564832880000       0.357830539292537     
  0.212023236906000       5.398303027584788E-002
 
          10 0
 s           4   1.00000000000000     
   63.5940244669410      -0.192343884147216     
   10.9514172315237      -0.234781079249537     
  0.879993102573770       0.375937539017009     
  0.335387152965211       0.149828892718628     
 p           4   1.00000000000000     
   7.29650404814951       0.976586663156674     
   1.89187454507126       0.903722267303458     
  0.666944321108241       0.474049584615364     
  0.265522026741309       7.151606771501186E-002
 
          11 0
 d           3   1.00000000000000     
   2.83032749122080        1.71448916425323     
  0.887453373088594       0.781034818910538     
  0.345684960408215       0.104059494248144     
 s           4   1.00000000000000     
  0.695111995148816      -6.080424419252015E-002
  0.356584305170521      -9.357916970744833E-002
  0.108935840076917       0.120409217624872     
  6.065357920736102E-002  3.064255297573086E-002
 p           4   1.00000000000000     
   2.51737953400177      -2.727839620888233E-002
  0.729880924002924      -5.782541533360520E-002
  0.127388852406668       6.998682569851342E-002
  6.250867267915186E-002  1.834609940635387E-002
 
          12 0
 s           4   1.00000000000000     
   63.5940244669410      -0.192343884147216     
   10.9514172315237      -0.234781079249537     
  0.879993102573770       0.375937539017009     
  0.335387152965211       0.149828892718628     
 p           4   1.00000000000000     
   7.29650404814951       0.976586663156674     
   1.89187454507126       0.903722267303458     
  0.666944321108241       0.474049584615364     
  0.265522026741309       7.151606771501186E-002
 
          13 0
 s           4   1.00000000000000     
   51.0493630955799      -0.163120632101274     
   8.79112274068875      -0.199110245810007     
  0.706404222589298       0.318820477536558     
  0.269228134134116       0.127065041842404     
 p           4   1.00000000000000     
   5.82636561408000       0.737164515452096     
   1.51068960187200       0.682163716148503     
  0.532564832880000       0.357830539292537     
  0.212023236906000       5.398303027584788E-002
 
          14 0
 s           4   1.00000000000000     
   51.0493630955799      -0.163120632101274     
   8.79112274068875      -0.199110245810007     
  0.706404222589298       0.318820477536558     
  0.269228134134116       0.127065041842404     
 p           4   1.00000000000000     
   5.82636561408000       0.737164515452096     
   1.51068960187200       0.682163716148503     
  0.532564832880000       0.357830539292537     
  0.212023236906000       5.398303027584788E-002
 
          15 0
 s           4   1.00000000000000     
   51.0493630955799      -0.163120632101274     
   8.79112274068875      -0.199110245810007     
  0.706404222589298       0.318820477536558     
  0.269228134134116       0.127065041842404     
 p           4   1.00000000000000     
   5.82636561408000       0.737164515452096     
   1.51068960187200       0.682163716148503     
  0.532564832880000       0.357830539292537     
  0.212023236906000       5.398303027584788E-002
 
          16 0
 s           4   1.00000000000000     
   51.0493630955799      -0.163120632101274     
   8.79112274068875      -0.199110245810007     
  0.706404222589298       0.318820477536558     
  0.269228134134116       0.127065041842404     
 p           4   1.00000000000000     
   5.82636561408000       0.737164515452096     
   1.51068960187200       0.682163716148503     
  0.532564832880000       0.357830539292537     
  0.212023236906000       5.398303027584788E-002
 
          17 0
 s           4   1.00000000000000     
   9.34674866189868      -0.125552785052236     
   2.63274953955161      -0.254029831967196     
  0.472092932487140       0.305184566430756     
  0.232271649766237       8.559661830788402E-002
 p           4   1.00000000000000     
   8.96653868620652      -0.317209215069455     
  0.926601749794952       0.357031126383567     
  0.418792332287928       0.280771537007085     
  0.202453454537036       4.152131922185704E-002
 d           3   1.00000000000000     
   3.20597745654841        2.13231494102881     
   1.00523897559031       0.971375176087545     
  0.391565355448865       0.129419082352652     
 
          18 0
 s           4   1.00000000000000     
   51.0493630955799      -0.163120632101274     
   8.79112274068875      -0.199110245810007     
  0.706404222589298       0.318820477536558     
  0.269228134134116       0.127065041842404     
 p           4   1.00000000000000     
   5.82636561408000       0.737164515452096     
   1.51068960187200       0.682163716148503     
  0.532564832880000       0.357830539292537     
  0.212023236906000       5.398303027584788E-002
 
          19 0
 s           4   1.00000000000000     
   51.0493630955799      -0.163120632101274     
   8.79112274068875      -0.199110245810007     
  0.706404222589298       0.318820477536558     
  0.269228134134116       0.127065041842404     
 p           4   1.00000000000000     
   5.82636561408000       0.737164515452096     
   1.51068960187200       0.682163716148503     
  0.532564832880000       0.357830539292537     
  0.212023236906000       5.398303027584788E-002
 
          20 0
 s           4   1.00000000000000     
   9.34674866189868      -0.125552785052236     
   2.63274953955161      -0.254029831967196     
  0.472092932487140       0.305184566430756     
  0.232271649766237       8.559661830788402E-002
 p           4   1.00000000000000     
   8.96653868620652      -0.317209215069455     
  0.926601749794952       0.357031126383567     
  0.418792332287928       0.280771537007085     
  0.202453454537036       4.152131922185704E-002
 d           3   1.00000000000000     
   3.20597745654841        2.13231494102881     
   1.00523897559031       0.971375176087545     
  0.391565355448865       0.129419082352652     
 
          21 0
 s           4   1.00000000000000     
   51.0493630955799      -0.163120632101274     
   8.79112274068875      -0.199110245810007     
  0.706404222589298       0.318820477536558     
  0.269228134134116       0.127065041842404     
 p           4   1.00000000000000     
   5.82636561408000       0.737164515452096     
   1.51068960187200       0.682163716148503     
  0.532564832880000       0.357830539292537     
  0.212023236906000       5.398303027584788E-002
 
          22 0
 s           4   1.00000000000000     
   69.1379619061966      -0.204787563700778     
   11.9061291327073      -0.249970231368273     
  0.956708277443407       0.400258802406396     
  0.364625204960737       0.159522066676936     
 p           4   1.00000000000000     
   8.21241932577816        1.13215567991868     
   2.12935769970981        1.04768407822548     
  0.750664482023609       0.549565082171590     
  0.298852465432831       8.290848659276662E-002
 
          23 0
 s           4   1.00000000000000     
   51.0493630955799      -0.163120632101274     
   8.79112274068875      -0.199110245810007     
  0.706404222589298       0.318820477536558     
  0.269228134134116       0.127065041842404     
 p           4   1.00000000000000     
   5.82636561408000       0.737164515452096     
   1.51068960187200       0.682163716148503     
  0.532564832880000       0.357830539292537     
  0.212023236906000       5.398303027584788E-002
 
          24 0
 s           4   1.00000000000000     
   51.0493630955799      -0.163120632101274     
   8.79112274068875      -0.199110245810007     
  0.706404222589298       0.318820477536558     
  0.269228134134116       0.127065041842404     
 p           4   1.00000000000000     
   5.82636561408000       0.737164515452096     
   1.51068960187200       0.682163716148503     
  0.532564832880000       0.357830539292537     
  0.212023236906000       5.398303027584788E-002
 
          25 0
 s           4   1.00000000000000     
   69.1379619061966      -0.204787563700778     
   11.9061291327073      -0.249970231368273     
  0.956708277443407       0.400258802406396     
  0.364625204960737       0.159522066676936     
 p           4   1.00000000000000     
   8.21241932577816        1.13215567991868     
   2.12935769970981        1.04768407822548     
  0.750664482023609       0.549565082171590     
  0.298852465432831       8.290848659276662E-002
 
          26 0
 s           3   1.00000000000000     
   3.37022769753360       0.273591105889083     
  0.613891182214980       0.264605406538605     
  0.166142911484160       8.246594753408230E-002
 
          27 0
 s           3   1.00000000000000     
   3.37022769753360       0.273591105889083     
  0.613891182214980       0.264605406538605     
  0.166142911484160       8.246594753408230E-002
 
          28 0
 s           3   1.00000000000000     
   3.37022769753360       0.273591105889083     
  0.613891182214980       0.264605406538605     
  0.166142911484160       8.246594753408230E-002
 
          29 0
 s           3   1.00000000000000     
   3.37022769753360       0.273591105889083     
  0.613891182214980       0.264605406538605     
  0.166142911484160       8.246594753408230E-002
 
          30 0
 s           3   1.00000000000000     
   3.37022769753360       0.273591105889083     
  0.613891182214980       0.264605406538605     
  0.166142911484160       8.246594753408230E-002
 
          31 0
 s           3   1.00000000000000     
   3.37022769753360       0.273591105889083     
  0.613891182214980       0.264605406538605     
  0.166142911484160       8.246594753408230E-002
 
          32 0
 s           3   1.00000000000000     
   3.37022769753360       0.273591105889083     
  0.613891182214980       0.264605406538605     
  0.166142911484160       8.246594753408230E-002
 
          33 0
 s           3   1.00000000000000     
   3.37022769753360       0.273591105889083     
  0.613891182214980       0.264605406538605     
  0.166142911484160       8.246594753408230E-002
 
          34 0
 s           3   1.00000000000000     
   3.37022769753360       0.273591105889083     
  0.613891182214980       0.264605406538605     
  0.166142911484160       8.246594753408230E-002
 
          35 0
 s           3   1.00000000000000     
   3.37022769753360       0.273591105889083     
  0.613891182214980       0.264605406538605     
  0.166142911484160       8.246594753408230E-002
 
[MO]
Sym=     1a
Ene=   -1.05931075268474     
Spin= Alpha
Occup=     2.00000000
           1  2.686884357447412E-004
           2 -1.447027670734463E-006
           3  4.288129426082607E-007
           4 -1.413676216179661E-006
           5 -7.487505480850533E-007
           6  8.226351359249923E-007
           7 -7.388458783993893E-008
           8  8.276312316758823E-008
           9 -1.342195988432751E-006
          10 -3.133316059149075E-008
          11  1.032390218842499E-005
          12 -1.389590115198259E-005
          13  2.514101481318939E-007
          14 -1.038967729532623E-005
          15  5.017007173133030E-007
          16 -5.551556842611499E-007
          17  4.894255679310133E-007
          18 -9.101094661494492E-007
          19 -1.162617736364946E-006
          20 -2.185022666123203E-006
          21 -1.903952956088368E-006
          22  3.858086439111079E-007
          23  1.309292919241684E-005
          24 -4.945667112683656E-007
          25 -5.874651243650504E-007
          26  2.716882325688898E-007
          27  7.193916072118658E-008
          28 -1.567855991701814E-007
          29  8.484643844899481E-008
          30 -2.695390745781780E-007
          31  1.405089330905041E-007
          32  2.635507313052546E-007
          33 -9.918654712381995E-006
          34 -8.948170350734202E-006
          35 -4.742800257732008E-006
          36 -1.597860559134191E-006
          37 -6.139012627355858E-006
          38 -6.252852582368385E-006
          39 -1.523668077918411E-007
          40 -4.368934786015251E-006
          41 -2.766124267576138E-007
          42 -2.095183481021374E-006
          43 -5.539982888952258E-007
          44 -9.483919826238370E-007
          45 -1.075068985623367E-005
          46 -5.410694661083848E-006
          47  5.030672787824731E-006
          48 -9.069181343923023E-006
          49 -2.074635538620722E-005
          50  3.242520400256553E-006
          51  7.347879075290639E-006
          52 -5.103922956814979E-006
          53 -3.729119007443999E-006
          54  3.844300372989577E-006
          55 -1.151813655455781E-007
          56  1.168220918653833E-006
          57 -1.208814561562289E-005
          58  3.756173166609167E-006
          59 -5.106857072009603E-005
          60 -1.133091510423785E-004
          61  2.809069279989756E-005
          62 -1.058598357319963E-004
          63  3.427274616984601E-006
          64 -1.540464749082059E-005
          65 -4.627158381794517E-006
          66 -9.377327186187982E-006
          67 -9.685635420196135E-005
          68 -7.044960449076833E-005
          69  1.301426565700043E-004
          70 -1.397593370496471E-004
          71 -7.240453758888078E-004
          72 -6.870409718446025E-004
          73  4.102632632483824E-004
          74 -8.153157382147430E-004
          75 -3.046209654136319E-003
          76 -3.674617194404463E-004
          77  2.785015397445906E-003
          78 -2.006440092137040E-003
          79 -3.851188855436096E-002
          80 -4.744128563909313E-002
          81 -1.558656351648533E-004
          82 -3.956108587080648E-002
          83 -0.977429942622087     
          84 -6.027558757169584E-003
          85 -1.401328503762835E-003
          86 -3.806462205247666E-003
          87  2.245789090797490E-003
          88 -3.022924821726895E-003
          89  7.771357309294052E-004
          90 -1.750890249554024E-004
          91  4.787658362536686E-003
          92  1.471120430786700E-004
          93 -2.981857613388097E-003
          94 -2.111162843747692E-003
          95 -2.713084863472212E-003
          96 -1.072650264774112E-004
          97 -7.051263631769497E-004
          98 -9.938489748582201E-004
          99 -4.908830485263805E-004
         100 -5.314722414800531E-004
         101  1.785641873058769E-003
         102 -1.125594088150977E-004
         103 -1.222910968928157E-004
         104 -2.334083487563436E-005
         105 -1.884383435073762E-005
         106 -2.931228191602398E-005
         107  4.815611626676160E-005
         108 -8.729705432711074E-005
         109 -3.433721735366459E-005
         110 -1.434214279481235E-006
         111 -2.419718681715118E-004
         112 -3.888193365328065E-004
         113  4.695387153911570E-006
         114 -3.231046813207868E-004
         115 -3.232180716887510E-005
         116 -2.222294705539486E-005
         117  5.178894946097764E-006
         118 -2.105756025996335E-005
         119  1.694637536030603E-006
         120  1.809087238245035E-006
         121 -1.442088829663698E-006
         122  2.489968518518451E-006
         123 -4.043697619375736E-006
         124  4.769475470052387E-006
         125  4.086678309708349E-006
         126 -1.360149110799890E-006
         127 -9.310445662623369E-006
         128 -4.859561890962223E-007
         129 -4.530137727086186E-006
         130  4.184129731949688E-006
         131 -1.197655853911721E-006
         132 -1.615578576078718E-006
         133 -5.251814035652675E-006
         134 -1.712990026710177E-004
         135  3.367154418965484E-003
         136  3.366759314076458E-003
         137  1.195537861518208E-006
         138  3.533842730719570E-006
         139 -2.940924781924380E-006
         140 -2.705226681902567E-006
Sym=     2a
Ene=   -1.05924318401348     
Spin= Alpha
Occup=     2.00000000
           1 -0.977420363526616     
           2  5.097601277167399E-003
           3 -1.563680189560071E-003
           4  5.025194829835230E-003
           5  2.636432414877065E-003
           6 -2.907350891578231E-003
           7  2.709184767011658E-004
           8 -3.155799707797243E-004
           9  4.738164147349296E-003
          10  1.227218358738654E-004
          11 -3.852065366545257E-002
          12  4.920114762521823E-002
          13 -1.423580304151708E-003
          14  3.734378847386480E-002
          15 -2.982362956630493E-003
          16  1.490255950063496E-004
          17 -2.335253397882150E-003
          18  2.521832640724327E-003
          19 -7.059169511240959E-004
          20  6.613237357617550E-004
          21 -4.354354949833250E-004
          22  9.405504904269747E-004
          23  1.780229410910022E-003
          24  2.649703773739322E-005
          25 -1.034064429128653E-004
          26  1.294357783736531E-004
          27  3.495895457762140E-005
          28 -3.086418450761288E-006
          29 -3.187253612686011E-005
          30  3.321115378060091E-006
          31 -3.495483751018239E-005
          32  9.176993053679216E-005
          33 -2.422838550945061E-004
          34  4.043604279219623E-004
          35 -7.180129340877913E-006
          36  3.037441278804427E-004
          37 -7.244622571646638E-004
          38  1.017733251638148E-003
          39  3.231143786776865E-004
          40  4.071289964095857E-004
          41 -3.046798977932618E-003
          42  2.477331710610583E-003
          43  2.330189720813902E-003
          44 -5.938835741931359E-004
          45 -9.696341678517319E-005
          46  1.717424521849937E-004
          47  1.083473042816588E-004
          48  1.487854094394353E-005
          49  3.349039696055382E-006
          50  1.215463921564769E-005
          51 -4.396569039003862E-006
          52  1.349990059897778E-005
          53 -7.864404848733213E-006
          54  6.430148221485221E-006
          55  1.434256627247992E-006
          56 -3.312892338780267E-006
          57 -9.750848423411165E-006
          58  1.862167201382406E-006
          59 -5.092399601095907E-005
          60  1.346361582667639E-004
          61  1.882253418882130E-005
          62  7.839319782132834E-005
          63 -2.053281942140087E-005
          64  2.842414283288758E-006
          65  8.689237635338449E-006
          66 -2.527172555075793E-006
          67 -1.074886279789132E-005
          68  9.276292878428490E-006
          69  5.658914008984501E-006
          70  4.077853325899864E-006
          71 -6.534699082956593E-006
          72  5.404284823623311E-006
          73 -1.820137086521953E-007
          74  4.492274021243441E-006
          75 -1.951517850831370E-006
          76  1.306693074845033E-006
          77  8.115846965805914E-007
          78  5.674287444618918E-007
          79 -1.085802901077805E-005
          80 -1.281690090719602E-005
          81 -2.192290068546654E-007
          82 -1.058526627571691E-005
          83 -2.688421223932419E-004
          84 -1.615813426620078E-006
          85 -3.880350971616055E-007
          86 -1.010167519759335E-006
          87  6.020572423044907E-007
          88 -8.098948373294729E-007
          89  2.078375950249823E-007
          90 -4.733345758072516E-008
          91  1.274132387555133E-006
          92  4.559496650816436E-008
          93 -1.138678749094803E-006
          94 -2.226611134095610E-007
          95 -9.421972453812577E-007
          96  3.819609408259471E-007
          97 -1.543027027329287E-006
          98 -1.008208091758217E-007
          99 -2.588292030325166E-006
         100  1.462190341664169E-006
         101  1.441489894075853E-005
         102 -9.506124703749732E-008
         103 -7.943904563879218E-007
         104  3.853907816720486E-007
         105  1.814421152124943E-007
         106 -3.214425552422638E-007
         107  1.400004400297694E-007
         108 -1.982826143649398E-007
         109  2.106661356511419E-008
         110  2.642437547527964E-007
         111 -1.007727548413792E-005
         112  4.194701198330988E-006
         113 -5.778572394274735E-006
         114  7.066595496702379E-006
         115 -9.435095634156016E-006
         116 -3.511616787308007E-006
         117 -4.993687627935325E-006
         118  7.985846898842139E-007
         119 -3.950083968643413E-006
         120 -9.987178214569722E-007
         121  5.318164724616825E-006
         122 -3.272588435494757E-006
         123  1.689015335544994E-006
         124 -2.958019997192039E-006
         125 -1.269743831383670E-006
         126 -1.049852138532149E-006
         127 -3.247445650992014E-005
         128  2.647089670430868E-005
         129  3.754397615300685E-006
         130  1.591210974159747E-005
         131  3.366074493105029E-003
         132  3.368931656072880E-003
         133 -1.713214476584230E-004
         134 -5.313858916000928E-006
         135  2.372865129527082E-007
         136  6.516430561953778E-007
         137 -2.707552576600242E-006
         138 -2.705627579420716E-006
         139  1.084722781268565E-006
         140  3.623821720992584E-006
Sym=     3a
Ene=   -1.04797820716971     
Spin= Alpha
Occup=     2.00000000
           1 -4.982183636667546E-005
           2 -1.569628439164162E-006
           3  6.303315787811394E-007
           4 -1.805845590517513E-006
           5 -4.867269190187785E-007
           6  6.446134155536840E-007
           7 -1.578864965349055E-007
           8 -4.944078271014861E-008
           9 -1.282182834302953E-006
          10  5.032102581151153E-007
          11 -1.554215018755686E-005
          12 -7.300482109007774E-006
          13  6.465190695084090E-006
          14 -1.210781244051493E-005
          15 -4.757418085263216E-005
          16 -4.185242537137172E-005
          17 -9.161226913857035E-007
          18 -3.008031133238520E-005
          19 -6.069644500896969E-004
          20 -3.207423325668164E-005
          21  6.429439682488054E-004
          22 -6.894718384897094E-004
          23 -1.435185542351815E-002
          24  2.444080089856305E-004
          25  1.581263429542566E-004
          26 -1.123616157019172E-005
          27 -3.067719966700621E-005
          28  1.550826869735753E-005
          29  1.516893096964868E-005
          30  1.149953188160371E-005
          31  4.350761850247779E-006
          32 -7.330943971448490E-005
          33 -8.462820336951146E-005
          34  1.879658028022233E-005
          35 -3.679400224963628E-005
          36  2.398795866474832E-005
          37 -8.430810557025120E-005