[Molden Format]
[Title]
[Atoms] AU
C      1     6 -0.14095356248368E+02 -0.35363220890548E+01 -0.16060349268760E+01
C      2     6 -0.13007648548316E+02 -0.95634320695114E+00 -0.87722471127322E+00
C      3     6 -0.13958992354160E+02 -0.30000047459000E+00  0.17840867627892E+01
C      4     6 -0.13989964678844E+02  0.10020485391623E+01 -0.27793895364979E+01
C      5     6 -0.10131379397885E+02 -0.90825370701231E+00 -0.87993078228482E+00
C      6     6 -0.88696167383977E+01  0.12731313155668E+01 -0.26667107836760E+00
C      7     6 -0.62193005721608E+01  0.13859844192195E+01 -0.23636798941454E+00
C      8     6 -0.47378947747108E+01 -0.78721309912031E+00 -0.82886694465653E+00
C      9     6 -0.60634326005707E+01 -0.30488867972604E+01 -0.14971316064334E+01
C     10     6 -0.45691822557949E+01 -0.54218541408044E+01 -0.21371912081676E+01
C     11     6 -0.28344988344883E+01 -0.48768705798491E+01 -0.43963061479214E+01
C     12     6 -0.62513022670808E+01 -0.76739208480194E+01 -0.28344806306329E+01
C     13     6 -0.29919873356974E+01 -0.61627024243878E+01  0.17892493202533E+00
C     14     6 -0.86616340113365E+01 -0.30314343238730E+01 -0.14924432590412E+01
O     15     8 -0.23092763867690E+01 -0.68829912472241E+00 -0.77620517041474E+00
Co    16    27 -0.10349077379682E+00  0.18032909541675E+01  0.31027289857619E-01
N     17     7 -0.26202417859912E+01  0.41541046471146E+01  0.31240783553107E+00
C     18     6 -0.50345341008412E+01  0.37141486948315E+01  0.34249949732512E+00
C     19     6 -0.17424438316085E+01  0.67033694347104E+01  0.96653160355904E+00
C     20     6 -0.35355797766566E+01  0.87967499552791E+01  0.59064712103525E-01
C     21     6 -0.15356851198416E+01  0.68081851937381E+01  0.38623635938279E+01
C     22     6  0.91499921814552E+00  0.69367461214718E+01 -0.27466006356903E+00
C     23     6  0.24297477335301E+01  0.91413319100418E+01  0.84910462384465E+00
C     24     6  0.67950308389217E+00  0.73091317234219E+01 -0.31465602193133E+01
N     25     7  0.21075394868009E+01  0.44626906493008E+01  0.11386359883180E+00
C     26     6  0.45582383536203E+01  0.43349364633945E+01  0.14343138202624E+00
C     27     6  0.60171310228378E+01  0.21158318481213E+01  0.46515386602590E+00
C     28     6  0.86611201230880E+01  0.23439044310390E+01  0.63734387880133E+00
C     29     6  0.10168167626243E+02  0.27322593744986E+00  0.10037842761265E+01
C     30     6  0.13030559956563E+02  0.40383284422994E+00  0.12176783272712E+01
C     31     6  0.14219966642856E+02 -0.11828980483159E+01 -0.89972487764285E+00
C     32     6  0.13842793569317E+02 -0.63835155920896E+00  0.38006006944331E+01
C     33     6  0.14032531587348E+02  0.31086750086613E+01  0.98604843235333E+00
C     34     6  0.89673335032295E+01 -0.20943749606071E+01  0.11886695270040E+01
C     35     6  0.64038495932512E+01 -0.24475735738157E+01  0.10336400046849E+01
C     36     6  0.52151169788836E+01 -0.50604598052458E+01  0.12053677171294E+01
C     37     6  0.33768974082064E+01 -0.51216484700580E+01  0.34470361113992E+01
C     38     6  0.71607147015295E+01 -0.71702546833594E+01  0.15938266304230E+01
C     39     6  0.38014533648227E+01 -0.55904262705685E+01 -0.12691584377953E+01
C     40     6  0.48144739896106E+01 -0.28658934286585E+00  0.65683918294281E+00
O     41     8  0.23963919543049E+01 -0.48478590446583E+00  0.51421096121602E+00
H     42     1 -0.13526056264993E+02 -0.40702661337900E+01 -0.35071092889955E+01
H     43     1 -0.16149945245473E+02 -0.34481322292258E+01 -0.15617364581490E+01
H     44     1 -0.13496634784029E+02 -0.49926042002887E+01 -0.28551414818814E+00
H     45     1 -0.13336925953973E+02  0.15703135365158E+01  0.23586617716447E+01
H     46     1 -0.13242505200743E+02 -0.16619592187664E+01  0.31474003316786E+01
H     47     1 -0.16014343166882E+02 -0.34048032102265E+00  0.18371881135006E+01
H     48     1 -0.13282031457958E+02  0.57727322785176E+00 -0.46623356363956E+01
H     49     1 -0.16045543538222E+02  0.97573825620435E+00 -0.28322717828164E+01
H     50     1 -0.13383968601006E+02  0.28986402956436E+01 -0.22783835634819E+01
H     51     1 -0.98927747827244E+01  0.29770448150391E+01  0.20551065678060E+00
H     52     1 -0.17189757247243E+01 -0.65429104828578E+01 -0.48507953573101E+01
H     53     1 -0.15564105411606E+01 -0.33323126664781E+01 -0.39666661214164E+01
H     54     1 -0.39558891801461E+01 -0.43665996337657E+01 -0.60443088446049E+01
H     55     1 -0.74684315622841E+01 -0.82147332052063E+01 -0.12685105091863E+01
H     56     1 -0.50561930546426E+01 -0.92851426282146E+01 -0.32876895513066E+01
H     57     1 -0.74082563292491E+01 -0.72639816230758E+01 -0.44839376218193E+01
H     58     1 -0.17001567804275E+01 -0.46498484598734E+01  0.66901070977657E+00
H     59     1 -0.19039007535577E+01 -0.78604624508131E+01 -0.21798342283031E+00
H     60     1 -0.42216889023701E+01 -0.65313133026463E+01  0.17867089314028E+01
H     61     1 -0.96325937276259E+01 -0.47458618627675E+01 -0.19831790378158E+01
H     62     1 -0.63286815268589E+01  0.52418762159788E+01  0.80633538427503E+00
H     63     1 -0.42721666571339E+01  0.83744978554637E+01 -0.18114623586428E+01
H     64     1 -0.25463857742517E+01  0.10593757730165E+02 -0.18580338473277E-01
H     65     1 -0.51116544866991E+01  0.90293259737471E+01  0.13568086888549E+01
H     66     1 -0.11984788543425E+00  0.54663771658276E+01  0.45168354639211E+01
H     67     1 -0.10415819432288E+01  0.86944758836082E+01  0.45029430782988E+01
H     68     1 -0.33431630874497E+01  0.62873689586394E+01  0.46938799493265E+01
H     69     1  0.32052111771132E+01  0.86450760336371E+01  0.26852692175588E+01
H     70     1  0.39687419803905E+01  0.96867432695964E+01 -0.39848827760003E+00
H     71     1  0.12217506129556E+01  0.10785743242527E+02  0.10740509556298E+01
H     72     1 -0.58527497069748E-01  0.91707764714633E+01 -0.35961281692721E+01
H     73     1 -0.55409613959614E+00  0.58686481317245E+01 -0.39451614265342E+01
H     74     1  0.25351191346805E+01  0.71139458144268E+01 -0.40116313669494E+01
H     75     1  0.56575754491443E+01  0.60593129409813E+01 -0.57313324854335E-01
H     76     1  0.94492986708444E+01  0.42179052866626E+01  0.48090557040961E+00
H     77     1  0.13615553905272E+02 -0.48149142280253E+00 -0.27355663229999E+01
H     78     1  0.16271241687961E+02 -0.10755315019371E+01 -0.80119287306781E+00
H     79     1  0.13672774721844E+02 -0.31561050346307E+01 -0.75441289812690E+00
H     80     1  0.13276730912883E+02 -0.25981059076533E+01  0.40298283889616E+01
H     81     1  0.15886893326950E+02 -0.53225293068313E+00  0.39984312213235E+01
H     82     1  0.12981780562925E+02  0.46004348491717E+00  0.53105703575003E+01
H     83     1  0.13276977038044E+02  0.43046426930621E+01  0.24771279995824E+01
H     84     1  0.16082044763562E+02  0.30997846971358E+01  0.11556338102693E+01
H     85     1  0.13549554124365E+02  0.39201401227166E+01 -0.83935757178639E+00
H     86     1  0.10155940216182E+02 -0.37217469039410E+01  0.14664610827777E+01
H     87     1  0.24678209047806E+01 -0.69615561535464E+01  0.35682864386121E+01
H     88     1  0.43898270376998E+01 -0.47711084985870E+01  0.52033871098593E+01
H     89     1  0.19270823722679E+01 -0.36886000793345E+01  0.32278234416136E+01
H     90     1  0.82054078234907E+01 -0.69139115569921E+01  0.33462240298740E+01
H     91     1  0.61782140319180E+01 -0.89735643486208E+01  0.17052857833960E+01
H     92     1  0.84824869939836E+01 -0.72696598669430E+01  0.22122758375479E-01
H     93     1  0.51061759189622E+01 -0.55243407164702E+01 -0.28587124275962E+01
H     94     1  0.29376620262394E+01 -0.74543433739260E+01 -0.12067616334285E+01
H     95     1  0.23323776505472E+01 -0.41923820450151E+01 -0.15626587631049E+01
[GTO]
           1 0
 s           4   1.00000000000000     
   51.0493630955799      -0.163120632101274     
   8.79112274068875      -0.199110245810007     
  0.706404222589298       0.318820477536558     
  0.269228134134116       0.127065041842404     
 p           4   1.00000000000000     
   5.82636561408000       0.737164515452096     
   1.51068960187200       0.682163716148503     
  0.532564832880000       0.357830539292537     
  0.212023236906000       5.398303027584788E-002
 
           2 0
 s           4   1.00000000000000     
   51.0493630955799      -0.163120632101274     
   8.79112274068875      -0.199110245810007     
  0.706404222589298       0.318820477536558     
  0.269228134134116       0.127065041842404     
 p           4   1.00000000000000     
   5.82636561408000       0.737164515452096     
   1.51068960187200       0.682163716148503     
  0.532564832880000       0.357830539292537     
  0.212023236906000       5.398303027584788E-002
 
           3 0
 s           4   1.00000000000000     
   51.0493630955799      -0.163120632101274     
   8.79112274068875      -0.199110245810007     
  0.706404222589298       0.318820477536558     
  0.269228134134116       0.127065041842404     
 p           4   1.00000000000000     
   5.82636561408000       0.737164515452096     
   1.51068960187200       0.682163716148503     
  0.532564832880000       0.357830539292537     
  0.212023236906000       5.398303027584788E-002
 
           4 0
 s           4   1.00000000000000     
   51.0493630955799      -0.163120632101274     
   8.79112274068875      -0.199110245810007     
  0.706404222589298       0.318820477536558     
  0.269228134134116       0.127065041842404     
 p           4   1.00000000000000     
   5.82636561408000       0.737164515452096     
   1.51068960187200       0.682163716148503     
  0.532564832880000       0.357830539292537     
  0.212023236906000       5.398303027584788E-002
 
           5 0
 s           4   1.00000000000000     
   51.0493630955799      -0.163120632101274     
   8.79112274068875      -0.199110245810007     
  0.706404222589298       0.318820477536558     
  0.269228134134116       0.127065041842404     
 p           4   1.00000000000000     
   5.82636561408000       0.737164515452096     
   1.51068960187200       0.682163716148503     
  0.532564832880000       0.357830539292537     
  0.212023236906000       5.398303027584788E-002
 
           6 0
 s           4   1.00000000000000     
   51.0493630955799      -0.163120632101274     
   8.79112274068875      -0.199110245810007     
  0.706404222589298       0.318820477536558     
  0.269228134134116       0.127065041842404     
 p           4   1.00000000000000     
   5.82636561408000       0.737164515452096     
   1.51068960187200       0.682163716148503     
  0.532564832880000       0.357830539292537     
  0.212023236906000       5.398303027584788E-002
 
           7 0
 s           4   1.00000000000000     
   51.0493630955799      -0.163120632101274     
   8.79112274068875      -0.199110245810007     
  0.706404222589298       0.318820477536558     
  0.269228134134116       0.127065041842404     
 p           4   1.00000000000000     
   5.82636561408000       0.737164515452096     
   1.51068960187200       0.682163716148503     
  0.532564832880000       0.357830539292537     
  0.212023236906000       5.398303027584788E-002
 
           8 0
 s           4   1.00000000000000     
   51.0493630955799      -0.163120632101274     
   8.79112274068875      -0.199110245810007     
  0.706404222589298       0.318820477536558     
  0.269228134134116       0.127065041842404     
 p           4   1.00000000000000     
   5.82636561408000       0.737164515452096     
   1.51068960187200       0.682163716148503     
  0.532564832880000       0.357830539292537     
  0.212023236906000       5.398303027584788E-002
 
           9 0
 s           4   1.00000000000000     
   51.0493630955799      -0.163120632101274     
   8.79112274068875      -0.199110245810007     
  0.706404222589298       0.318820477536558     
  0.269228134134116       0.127065041842404     
 p           4   1.00000000000000     
   5.82636561408000       0.737164515452096     
   1.51068960187200       0.682163716148503     
  0.532564832880000       0.357830539292537     
  0.212023236906000       5.398303027584788E-002
 
          10 0
 s           4   1.00000000000000     
   51.0493630955799      -0.163120632101274     
   8.79112274068875      -0.199110245810007     
  0.706404222589298       0.318820477536558     
  0.269228134134116       0.127065041842404     
 p           4   1.00000000000000     
   5.82636561408000       0.737164515452096     
   1.51068960187200       0.682163716148503     
  0.532564832880000       0.357830539292537     
  0.212023236906000       5.398303027584788E-002
 
          11 0
 s           4   1.00000000000000     
   51.0493630955799      -0.163120632101274     
   8.79112274068875      -0.199110245810007     
  0.706404222589298       0.318820477536558     
  0.269228134134116       0.127065041842404     
 p           4   1.00000000000000     
   5.82636561408000       0.737164515452096     
   1.51068960187200       0.682163716148503     
  0.532564832880000       0.357830539292537     
  0.212023236906000       5.398303027584788E-002
 
          12 0
 s           4   1.00000000000000     
   51.0493630955799      -0.163120632101274     
   8.79112274068875      -0.199110245810007     
  0.706404222589298       0.318820477536558     
  0.269228134134116       0.127065041842404     
 p           4   1.00000000000000     
   5.82636561408000       0.737164515452096     
   1.51068960187200       0.682163716148503     
  0.532564832880000       0.357830539292537     
  0.212023236906000       5.398303027584788E-002
 
          13 0
 s           4   1.00000000000000     
   51.0493630955799      -0.163120632101274     
   8.79112274068875      -0.199110245810007     
  0.706404222589298       0.318820477536558     
  0.269228134134116       0.127065041842404     
 p           4   1.00000000000000     
   5.82636561408000       0.737164515452096     
   1.51068960187200       0.682163716148503     
  0.532564832880000       0.357830539292537     
  0.212023236906000       5.398303027584788E-002
 
          14 0
 s           4   1.00000000000000     
   51.0493630955799      -0.163120632101274     
   8.79112274068875      -0.199110245810007     
  0.706404222589298       0.318820477536558     
  0.269228134134116       0.127065041842404     
 p           4   1.00000000000000     
   5.82636561408000       0.737164515452096     
   1.51068960187200       0.682163716148503     
  0.532564832880000       0.357830539292537     
  0.212023236906000       5.398303027584788E-002
 
          15 0
 s           4   1.00000000000000     
   69.1379619061966      -0.204787563700778     
   11.9061291327073      -0.249970231368273     
  0.956708277443407       0.400258802406396     
  0.364625204960737       0.159522066676936     
 p           4   1.00000000000000     
   8.21241932577816        1.13215567991868     
   2.12935769970981        1.04768407822548     
  0.750664482023609       0.549565082171590     
  0.298852465432831       8.290848659276662E-002
 
          16 0
 d           3   1.00000000000000     
   2.83032749122080        1.71448916425323     
  0.887453373088594       0.781034818910538     
  0.345684960408215       0.104059494248144     
 s           4   1.00000000000000     
  0.695111995148816      -6.080424419252015E-002
  0.356584305170521      -9.357916970744833E-002
  0.108935840076917       0.120409217624872     
  6.065357920736102E-002  3.064255297573086E-002
 p           4   1.00000000000000     
   2.51737953400177      -2.727839620888233E-002
  0.729880924002924      -5.782541533360520E-002
  0.127388852406668       6.998682569851342E-002
  6.250867267915186E-002  1.834609940635387E-002
 
          17 0
 s           4   1.00000000000000     
   63.5940244669410      -0.192343884147216     
   10.9514172315237      -0.234781079249537     
  0.879993102573770       0.375937539017009     
  0.335387152965211       0.149828892718628     
 p           4   1.00000000000000     
   7.29650404814951       0.976586663156674     
   1.89187454507126       0.903722267303458     
  0.666944321108241       0.474049584615364     
  0.265522026741309       7.151606771501186E-002
 
          18 0
 s           4   1.00000000000000     
   51.0493630955799      -0.163120632101274     
   8.79112274068875      -0.199110245810007     
  0.706404222589298       0.318820477536558     
  0.269228134134116       0.127065041842404     
 p           4   1.00000000000000     
   5.82636561408000       0.737164515452096     
   1.51068960187200       0.682163716148503     
  0.532564832880000       0.357830539292537     
  0.212023236906000       5.398303027584788E-002
 
          19 0
 s           4   1.00000000000000     
   51.0493630955799      -0.163120632101274     
   8.79112274068875      -0.199110245810007     
  0.706404222589298       0.318820477536558     
  0.269228134134116       0.127065041842404     
 p           4   1.00000000000000     
   5.82636561408000       0.737164515452096     
   1.51068960187200       0.682163716148503     
  0.532564832880000       0.357830539292537     
  0.212023236906000       5.398303027584788E-002
 
          20 0
 s           4   1.00000000000000     
   51.0493630955799      -0.163120632101274     
   8.79112274068875      -0.199110245810007     
  0.706404222589298       0.318820477536558     
  0.269228134134116       0.127065041842404     
 p           4   1.00000000000000     
   5.82636561408000       0.737164515452096     
   1.51068960187200       0.682163716148503     
  0.532564832880000       0.357830539292537     
  0.212023236906000       5.398303027584788E-002
 
          21 0
 s           4   1.00000000000000     
   51.0493630955799      -0.163120632101274     
   8.79112274068875      -0.199110245810007     
  0.706404222589298       0.318820477536558     
  0.269228134134116       0.127065041842404     
 p           4   1.00000000000000     
   5.82636561408000       0.737164515452096     
   1.51068960187200       0.682163716148503     
  0.532564832880000       0.357830539292537     
  0.212023236906000       5.398303027584788E-002
 
          22 0
 s           4   1.00000000000000     
   51.0493630955799      -0.163120632101274     
   8.79112274068875      -0.199110245810007     
  0.706404222589298       0.318820477536558     
  0.269228134134116       0.127065041842404     
 p           4   1.00000000000000     
   5.82636561408000       0.737164515452096     
   1.51068960187200       0.682163716148503     
  0.532564832880000       0.357830539292537     
  0.212023236906000       5.398303027584788E-002
 
          23 0
 s           4   1.00000000000000     
   51.0493630955799      -0.163120632101274     
   8.79112274068875      -0.199110245810007     
  0.706404222589298       0.318820477536558     
  0.269228134134116       0.127065041842404     
 p           4   1.00000000000000     
   5.82636561408000       0.737164515452096     
   1.51068960187200       0.682163716148503     
  0.532564832880000       0.357830539292537     
  0.212023236906000       5.398303027584788E-002
 
          24 0
 s           4   1.00000000000000     
   51.0493630955799      -0.163120632101274     
   8.79112274068875      -0.199110245810007     
  0.706404222589298       0.318820477536558     
  0.269228134134116       0.127065041842404     
 p           4   1.00000000000000     
   5.82636561408000       0.737164515452096     
   1.51068960187200       0.682163716148503     
  0.532564832880000       0.357830539292537     
  0.212023236906000       5.398303027584788E-002
 
          25 0
 s           4   1.00000000000000     
   63.5940244669410      -0.192343884147216     
   10.9514172315237      -0.234781079249537     
  0.879993102573770       0.375937539017009     
  0.335387152965211       0.149828892718628     
 p           4   1.00000000000000     
   7.29650404814951       0.976586663156674     
   1.89187454507126       0.903722267303458     
  0.666944321108241       0.474049584615364     
  0.265522026741309       7.151606771501186E-002
 
          26 0
 s           4   1.00000000000000     
   51.0493630955799      -0.163120632101274     
   8.79112274068875      -0.199110245810007     
  0.706404222589298       0.318820477536558     
  0.269228134134116       0.127065041842404     
 p           4   1.00000000000000     
   5.82636561408000       0.737164515452096     
   1.51068960187200       0.682163716148503     
  0.532564832880000       0.357830539292537     
  0.212023236906000       5.398303027584788E-002
 
          27 0
 s           4   1.00000000000000     
   51.0493630955799      -0.163120632101274     
   8.79112274068875      -0.199110245810007     
  0.706404222589298       0.318820477536558     
  0.269228134134116       0.127065041842404     
 p           4   1.00000000000000     
   5.82636561408000       0.737164515452096     
   1.51068960187200       0.682163716148503     
  0.532564832880000       0.357830539292537     
  0.212023236906000       5.398303027584788E-002
 
          28 0
 s           4   1.00000000000000     
   51.0493630955799      -0.163120632101274     
   8.79112274068875      -0.199110245810007     
  0.706404222589298       0.318820477536558     
  0.269228134134116       0.127065041842404     
 p           4   1.00000000000000     
   5.82636561408000       0.737164515452096     
   1.51068960187200       0.682163716148503     
  0.532564832880000       0.357830539292537     
  0.212023236906000       5.398303027584788E-002
 
          29 0
 s           4   1.00000000000000     
   51.0493630955799      -0.163120632101274     
   8.79112274068875      -0.199110245810007     
  0.706404222589298       0.318820477536558     
  0.269228134134116       0.127065041842404     
 p           4   1.00000000000000     
   5.82636561408000       0.737164515452096     
   1.51068960187200       0.682163716148503     
  0.532564832880000       0.357830539292537     
  0.212023236906000       5.398303027584788E-002
 
          30 0
 s           4   1.00000000000000     
   51.0493630955799      -0.163120632101274     
   8.79112274068875      -0.199110245810007     
  0.706404222589298       0.318820477536558     
  0.269228134134116       0.127065041842404     
 p           4   1.00000000000000     
   5.82636561408000       0.737164515452096     
   1.51068960187200       0.682163716148503     
  0.532564832880000       0.357830539292537     
  0.212023236906000       5.398303027584788E-002
 
          31 0
 s           4   1.00000000000000     
   51.0493630955799      -0.163120632101274     
   8.79112274068875      -0.199110245810007     
  0.706404222589298       0.318820477536558     
  0.269228134134116       0.127065041842404     
 p           4   1.00000000000000     
   5.82636561408000       0.737164515452096     
   1.51068960187200       0.682163716148503     
  0.532564832880000       0.357830539292537     
  0.212023236906000       5.398303027584788E-002
 
          32 0
 s           4   1.00000000000000     
   51.0493630955799      -0.163120632101274     
   8.79112274068875      -0.199110245810007     
  0.706404222589298       0.318820477536558     
  0.269228134134116       0.127065041842404     
 p           4   1.00000000000000     
   5.82636561408000       0.737164515452096     
   1.51068960187200       0.682163716148503     
  0.532564832880000       0.357830539292537     
  0.212023236906000       5.398303027584788E-002
 
          33 0
 s           4   1.00000000000000     
   51.0493630955799      -0.163120632101274     
   8.79112274068875      -0.199110245810007     
  0.706404222589298       0.318820477536558     
  0.269228134134116       0.127065041842404     
 p           4   1.00000000000000     
   5.82636561408000       0.737164515452096     
   1.51068960187200       0.682163716148503     
  0.532564832880000       0.357830539292537     
  0.212023236906000       5.398303027584788E-002
 
          34 0
 s           4   1.00000000000000     
   51.0493630955799      -0.163120632101274     
   8.79112274068875      -0.199110245810007     
  0.706404222589298       0.318820477536558     
  0.269228134134116       0.127065041842404     
 p           4   1.00000000000000     
   5.82636561408000       0.737164515452096     
   1.51068960187200       0.682163716148503     
  0.532564832880000       0.357830539292537     
  0.212023236906000       5.398303027584788E-002
 
          35 0
 s           4   1.00000000000000     
   51.0493630955799      -0.163120632101274     
   8.79112274068875      -0.199110245810007     
  0.706404222589298       0.318820477536558     
  0.269228134134116       0.127065041842404     
 p           4   1.00000000000000     
   5.82636561408000       0.737164515452096     
   1.51068960187200       0.682163716148503     
  0.532564832880000       0.357830539292537     
  0.212023236906000       5.398303027584788E-002
 
          36 0
 s           4   1.00000000000000     
   51.0493630955799      -0.163120632101274     
   8.79112274068875      -0.199110245810007     
  0.706404222589298       0.318820477536558     
  0.269228134134116       0.127065041842404     
 p           4   1.00000000000000     
   5.82636561408000       0.737164515452096     
   1.51068960187200       0.682163716148503     
  0.532564832880000       0.357830539292537     
  0.212023236906000       5.398303027584788E-002
 
          37 0
 s           4   1.00000000000000     
   51.0493630955799      -0.163120632101274     
   8.79112274068875      -0.199110245810007     
  0.706404222589298       0.318820477536558     
  0.269228134134116       0.127065041842404     
 p           4   1.00000000000000     
   5.82636561408000       0.737164515452096     
   1.51068960187200       0.682163716148503     
  0.532564832880000       0.357830539292537     
  0.212023236906000       5.398303027584788E-002
 
          38 0
 s           4   1.00000000000000     
   51.0493630955799      -0.163120632101274     
   8.79112274068875      -0.199110245810007     
  0.706404222589298       0.318820477536558     
  0.269228134134116       0.127065041842404     
 p           4   1.00000000000000     
   5.82636561408000       0.737164515452096     
   1.51068960187200       0.682163716148503     
  0.532564832880000       0.357830539292537     
  0.212023236906000       5.398303027584788E-002
 
          39 0
 s           4   1.00000000000000     
   51.0493630955799      -0.163120632101274     
   8.79112274068875      -0.199110245810007     
  0.706404222589298       0.318820477536558     
  0.269228134134116       0.127065041842404     
 p           4   1.00000000000000     
   5.82636561408000       0.737164515452096     
   1.51068960187200       0.682163716148503     
  0.532564832880000       0.357830539292537     
  0.212023236906000       5.398303027584788E-002
 
          40 0
 s           4   1.00000000000000     
   51.0493630955799      -0.163120632101274     
   8.79112274068875      -0.199110245810007     
  0.706404222589298       0.318820477536558     
  0.269228134134116       0.127065041842404     
 p           4   1.00000000000000     
   5.82636561408000       0.737164515452096     
   1.51068960187200       0.682163716148503     
  0.532564832880000       0.357830539292537     
  0.212023236906000       5.398303027584788E-002
 
          41 0
 s           4   1.00000000000000     
   69.1379619061966      -0.204787563700778     
   11.9061291327073      -0.249970231368273     
  0.956708277443407       0.400258802406396     
  0.364625204960737       0.159522066676936     
 p           4   1.00000000000000     
   8.21241932577816        1.13215567991868     
   2.12935769970981        1.04768407822548     
  0.750664482023609       0.549565082171590     
  0.298852465432831       8.290848659276662E-002
 
          42 0
 s           3   1.00000000000000     
   3.37022769753360       0.273591105889083     
  0.613891182214980       0.264605406538605     
  0.166142911484160       8.246594753408230E-002
 
          43 0
 s           3   1.00000000000000     
   3.37022769753360       0.273591105889083     
  0.613891182214980       0.264605406538605     
  0.166142911484160       8.246594753408230E-002
 
          44 0
 s           3   1.00000000000000     
   3.37022769753360       0.273591105889083     
  0.613891182214980       0.264605406538605     
  0.166142911484160       8.246594753408230E-002
 
          45 0
 s           3   1.00000000000000     
   3.37022769753360       0.273591105889083     
  0.613891182214980       0.264605406538605     
  0.166142911484160       8.246594753408230E-002
 
          46 0
 s           3   1.00000000000000     
   3.37022769753360       0.273591105889083     
  0.613891182214980       0.264605406538605     
  0.166142911484160       8.246594753408230E-002
 
          47 0
 s           3   1.00000000000000     
   3.37022769753360       0.273591105889083     
  0.613891182214980       0.264605406538605     
  0.166142911484160       8.246594753408230E-002
 
          48 0
 s           3   1.00000000000000     
   3.37022769753360       0.273591105889083     
  0.613891182214980       0.264605406538605     
  0.166142911484160       8.246594753408230E-002
 
          49 0
 s           3   1.00000000000000     
   3.37022769753360       0.273591105889083     
  0.613891182214980       0.264605406538605     
  0.166142911484160       8.246594753408230E-002
 
          50 0
 s           3   1.00000000000000     
   3.37022769753360       0.273591105889083     
  0.613891182214980       0.264605406538605     
  0.166142911484160       8.246594753408230E-002
 
          51 0
 s           3   1.00000000000000     
   3.37022769753360       0.273591105889083     
  0.613891182214980       0.264605406538605     
  0.166142911484160       8.246594753408230E-002
 
          52 0
 s           3   1.00000000000000     