[Molden Format]
[Title]
[Atoms] AU
C      1     6  0.13098823607429E+02  0.34473114210926E-01 -0.48469713654970E+01
C      2     6  0.12728570016921E+02  0.67236933449620E+00 -0.20414199799721E+01
C      3     6  0.13591733781611E+02  0.34009006041318E+01 -0.16155251832121E+01
C      4     6  0.14387434740631E+02 -0.10613449085699E+01 -0.41064661904925E+00
C      5     6  0.99728066636403E+01  0.27082790197724E+00 -0.13340416502796E+01
C      6     6  0.84420296406831E+01  0.21449999119583E+01 -0.42235162856138E+00
C      7     6  0.59051993676249E+01  0.16715300736436E+01  0.23770253425982E+00
C      8     6  0.48642663850108E+01 -0.80950077482519E+00 -0.35220782135125E-01
C      9     6  0.64736980630194E+01 -0.27616634341785E+01 -0.99530303529571E+00
C     10     6  0.54203742081017E+01 -0.54150844172648E+01 -0.13492244855286E+01
C     11     6  0.44817284378933E+01 -0.64321548708525E+01  0.12004629556613E+01
C     12     6  0.32321070860293E+01 -0.52846104205566E+01 -0.32457527701911E+01
C     13     6  0.73810108902563E+01 -0.72807725973653E+01 -0.23798592901444E+01
C     14     6  0.89197163574084E+01 -0.21596377184587E+01 -0.16050488242565E+01
O     15     8  0.25712583747000E+01 -0.12551546809297E+01  0.64811786439467E+00
Mn    16    25 -0.16174400570709E-01  0.70563419177218E+00  0.17656239335938E+01
Cl    17    17  0.58482753659512E+00 -0.79030600361619E+00  0.55754750179972E+01
N     18     7  0.21539832644336E+01  0.34612504538315E+01  0.21789582718702E+01
C     19     6  0.44622977952001E+01  0.36551205294545E+01  0.12977777676121E+01
C     20     6  0.11487255773279E+01  0.56875740551497E+01  0.34712677288884E+01
C     21     6  0.29367837196620E+01  0.67875789897207E+01  0.54843018998310E+01
C     22     6  0.14394695908359E+01  0.81704765182249E+01  0.75478730044903E+01
C     23     6 -0.95120068206625E+00  0.93513339920336E+01  0.64496416031604E+01
C     24     6 -0.27915473732676E+01  0.73051842568121E+01  0.55173770911993E+01
C     25     6 -0.13301190858454E+01  0.49189442845790E+01  0.47668402107238E+01
N     26     7 -0.25786378025724E+01  0.31166823742544E+01  0.31184792691149E+01
C     27     6 -0.49962820306665E+01  0.31308613154394E+01  0.28644917865549E+01
C     28     6 -0.63493016087049E+01  0.14112812291402E+01  0.12591117126699E+01
C     29     6 -0.89859974108825E+01  0.14918480372841E+01  0.11755759996029E+01
C     30     6 -0.10331945098824E+02 -0.14820525106971E+00 -0.33835624649567E+00
C     31     6 -0.13202685446961E+02 -0.18118702550499E+00 -0.46538382326694E+00
C     32     6 -0.14406567116384E+02  0.18156473813717E+01  0.12474202926585E+01
C     33     6 -0.14046309196186E+02  0.33682476550735E+00 -0.31919030700906E+01
C     34     6 -0.14153674516727E+02 -0.27878403105226E+01  0.38198676773710E+00
C     35     6 -0.89584589427031E+01 -0.18728548970679E+01 -0.17930705959731E+01
C     36     6 -0.63497682406595E+01 -0.20270601736170E+01 -0.18029526527189E+01
C     37     6 -0.49377697309707E+01 -0.39941726787996E+01 -0.33554570239442E+01
C     38     6 -0.30995982530195E+01 -0.26573306388235E+01 -0.51583940284046E+01
C     39     6 -0.35065731286826E+01 -0.57356831891438E+01 -0.15281932922354E+01
C     40     6 -0.66976505246325E+01 -0.56418609718069E+01 -0.49596683113510E+01
C     41     6 -0.49881299961501E+01 -0.34478330512619E+00 -0.23452127777343E+00
O     42     8 -0.25094610445398E+01 -0.35509588466960E+00 -0.10046166731750E+00
H     43     1  0.15056654454241E+02  0.34706294960525E+00 -0.53919641761222E+01
H     44     1  0.11897614375212E+02  0.12302854734091E+01 -0.60109035967053E+01
H     45     1  0.12629258274090E+02 -0.19250466803294E+01 -0.52395202108930E+01
H     46     1  0.15570076531406E+02  0.35857052398721E+01 -0.21453691649409E+01
H     47     1  0.12501186064815E+02  0.47089561779720E+01 -0.27658472260962E+01
H     48     1  0.13411519284145E+02  0.39290339873749E+01  0.36220445062318E+00
H     49     1  0.16373472157354E+02 -0.76009401582893E+00 -0.84979335263933E+00
H     50     1  0.13952675728842E+02 -0.30410373498477E+01 -0.73484982647345E+00
H     51     1  0.14089145992478E+02 -0.65626062952310E+00  0.15825636557502E+01
H     52     1  0.91284158767694E+01  0.40461217634744E+01 -0.16079446080171E+00
H     53     1  0.36757753931700E+01 -0.83085434289867E+01  0.95788142862529E+00
H     54     1  0.60441954433209E+01 -0.65549693497594E+01  0.25318681859594E+01
H     55     1  0.30448324371757E+01 -0.52092397055626E+01  0.20083564288578E+01
H     56     1  0.24374955127066E+01 -0.71578558150038E+01 -0.35419680593182E+01
H     57     1  0.38955767011794E+01 -0.45578194220204E+01 -0.50538353018616E+01
H     58     1  0.17540321922601E+01 -0.40507682857090E+01 -0.25436347372304E+01
H     59     1  0.65052892560869E+01 -0.91314365464446E+01 -0.25742388621752E+01
H     60     1  0.80608960726912E+01 -0.67079676374487E+01 -0.42341796928518E+01
H     61     1  0.89762171635763E+01 -0.74712908209155E+01 -0.10976384323484E+01
H     62     1  0.10129612364243E+02 -0.36270387728123E+01 -0.23255604152944E+01
H     63     1  0.54116781502623E+01  0.54746453655740E+01  0.14376013391667E+01
H     64     1  0.72496145335232E+00  0.71271899076546E+01  0.20296379874445E+01
H     65     1  0.40151536523160E+01  0.52391945096776E+01  0.63172387826191E+01
H     66     1  0.42613074267428E+01  0.80999683512495E+01  0.46041497005168E+01
H     67     1  0.26226252811493E+01  0.96353833055164E+01  0.83864807673131E+01
H     68     1  0.91753435611917E+00  0.68602520407115E+01  0.90491195973578E+01
H     69     1 -0.18800215823536E+01  0.10515532009009E+02  0.78743377721457E+01
H     70     1 -0.42281404252346E+00  0.10594102196578E+02  0.48901982433529E+01
H     71     1 -0.41349171540433E+01  0.68457484891828E+01  0.70118279144330E+01
H     72     1 -0.38446430799761E+01  0.80249659209270E+01  0.38938243341749E+01
H     73     1 -0.82828058567365E+00  0.38312564621169E+01  0.64647715426539E+01
H     74     1 -0.61515143181643E+01  0.44975647423883E+01  0.38790802028499E+01
H     75     1 -0.99244649739327E+01  0.28643262809416E+01  0.23531158114660E+01
H     76     1 -0.13823087928002E+02  0.37088019604124E+01  0.70036338880914E+00
H     77     1 -0.13908798047347E+02  0.14959648857441E+01  0.32152444467784E+01
H     78     1 -0.16453681833988E+02  0.17116078071066E+01  0.10862933105879E+01
H     79     1 -0.13341111232590E+02 -0.10958206346047E+01 -0.44819477703300E+01
H     80     1 -0.13347170078461E+02  0.21667347648206E+01 -0.38163557566243E+01
H     81     1 -0.16098879311029E+02  0.34873672303261E+00 -0.33062569576685E+01
H     82     1 -0.16208962185054E+02 -0.28309337601255E+01  0.36498532038092E+00
H     83     1 -0.13507075176349E+02 -0.31916655196055E+01  0.22911044706942E+01
H     84     1 -0.13471236393845E+02 -0.42761946291551E+01 -0.85606621771383E+00
H     85     1 -0.10002566130648E+02 -0.31643737398204E+01 -0.29668631869284E+01
H     86     1 -0.20469173453824E+01 -0.40435819839711E+01 -0.62523216748371E+01
H     87     1 -0.17555165204656E+01 -0.14974882822227E+01 -0.41248661894076E+01
H     88     1 -0.41388478313100E+01 -0.14455893836131E+01 -0.64576824992873E+01
H     89     1 -0.24607990028093E+01 -0.71590684854588E+01 -0.25789778596252E+01
H     90     1 -0.48339171507914E+01 -0.66862222842649E+01 -0.27637655566981E+00
H     91     1 -0.21805335949561E+01 -0.46766799965200E+01 -0.36942447789660E+00
H     92     1 -0.79951385927447E+01 -0.67173313396446E+01 -0.37830264672506E+01
H     93     1 -0.77702101089130E+01 -0.45082539354341E+01 -0.62985054745379E+01
H     94     1 -0.55650908683233E+01 -0.69816080416594E+01 -0.60322385878074E+01
[GTO]
           1 0
 s           4   1.00000000000000     
   51.0493630955799      -0.163120632101274     
   8.79112274068875      -0.199110245810007     
  0.706404222589298       0.318820477536558     
  0.269228134134116       0.127065041842404     
 p           4   1.00000000000000     
   5.82636561408000       0.737164515452096     
   1.51068960187200       0.682163716148503     
  0.532564832880000       0.357830539292537     
  0.212023236906000       5.398303027584788E-002
 
           2 0
 s           4   1.00000000000000     
   51.0493630955799      -0.163120632101274     
   8.79112274068875      -0.199110245810007     
  0.706404222589298       0.318820477536558     
  0.269228134134116       0.127065041842404     
 p           4   1.00000000000000     
   5.82636561408000       0.737164515452096     
   1.51068960187200       0.682163716148503     
  0.532564832880000       0.357830539292537     
  0.212023236906000       5.398303027584788E-002
 
           3 0
 s           4   1.00000000000000     
   51.0493630955799      -0.163120632101274     
   8.79112274068875      -0.199110245810007     
  0.706404222589298       0.318820477536558     
  0.269228134134116       0.127065041842404     
 p           4   1.00000000000000     
   5.82636561408000       0.737164515452096     
   1.51068960187200       0.682163716148503     
  0.532564832880000       0.357830539292537     
  0.212023236906000       5.398303027584788E-002
 
           4 0
 s           4   1.00000000000000     
   51.0493630955799      -0.163120632101274     
   8.79112274068875      -0.199110245810007     
  0.706404222589298       0.318820477536558     
  0.269228134134116       0.127065041842404     
 p           4   1.00000000000000     
   5.82636561408000       0.737164515452096     
   1.51068960187200       0.682163716148503     
  0.532564832880000       0.357830539292537     
  0.212023236906000       5.398303027584788E-002
 
           5 0
 s           4   1.00000000000000     
   51.0493630955799      -0.163120632101274     
   8.79112274068875      -0.199110245810007     
  0.706404222589298       0.318820477536558     
  0.269228134134116       0.127065041842404     
 p           4   1.00000000000000     
   5.82636561408000       0.737164515452096     
   1.51068960187200       0.682163716148503     
  0.532564832880000       0.357830539292537     
  0.212023236906000       5.398303027584788E-002
 
           6 0
 s           4   1.00000000000000     
   51.0493630955799      -0.163120632101274     
   8.79112274068875      -0.199110245810007     
  0.706404222589298       0.318820477536558     
  0.269228134134116       0.127065041842404     
 p           4   1.00000000000000     
   5.82636561408000       0.737164515452096     
   1.51068960187200       0.682163716148503     
  0.532564832880000       0.357830539292537     
  0.212023236906000       5.398303027584788E-002
 
           7 0
 s           4   1.00000000000000     
   51.0493630955799      -0.163120632101274     
   8.79112274068875      -0.199110245810007     
  0.706404222589298       0.318820477536558     
  0.269228134134116       0.127065041842404     
 p           4   1.00000000000000     
   5.82636561408000       0.737164515452096     
   1.51068960187200       0.682163716148503     
  0.532564832880000       0.357830539292537     
  0.212023236906000       5.398303027584788E-002
 
           8 0
 s           4   1.00000000000000     
   51.0493630955799      -0.163120632101274     
   8.79112274068875      -0.199110245810007     
  0.706404222589298       0.318820477536558     
  0.269228134134116       0.127065041842404     
 p           4   1.00000000000000     
   5.82636561408000       0.737164515452096     
   1.51068960187200       0.682163716148503     
  0.532564832880000       0.357830539292537     
  0.212023236906000       5.398303027584788E-002
 
           9 0
 s           4   1.00000000000000     
   51.0493630955799      -0.163120632101274     
   8.79112274068875      -0.199110245810007     
  0.706404222589298       0.318820477536558     
  0.269228134134116       0.127065041842404     
 p           4   1.00000000000000     
   5.82636561408000       0.737164515452096     
   1.51068960187200       0.682163716148503     
  0.532564832880000       0.357830539292537     
  0.212023236906000       5.398303027584788E-002
 
          10 0
 s           4   1.00000000000000     
   51.0493630955799      -0.163120632101274     
   8.79112274068875      -0.199110245810007     
  0.706404222589298       0.318820477536558     
  0.269228134134116       0.127065041842404     
 p           4   1.00000000000000     
   5.82636561408000       0.737164515452096     
   1.51068960187200       0.682163716148503     
  0.532564832880000       0.357830539292537     
  0.212023236906000       5.398303027584788E-002
 
          11 0
 s           4   1.00000000000000     
   51.0493630955799      -0.163120632101274     
   8.79112274068875      -0.199110245810007     
  0.706404222589298       0.318820477536558     
  0.269228134134116       0.127065041842404     
 p           4   1.00000000000000     
   5.82636561408000       0.737164515452096     
   1.51068960187200       0.682163716148503     
  0.532564832880000       0.357830539292537     
  0.212023236906000       5.398303027584788E-002
 
          12 0
 s           4   1.00000000000000     
   51.0493630955799      -0.163120632101274     
   8.79112274068875      -0.199110245810007     
  0.706404222589298       0.318820477536558     
  0.269228134134116       0.127065041842404     
 p           4   1.00000000000000     
   5.82636561408000       0.737164515452096     
   1.51068960187200       0.682163716148503     
  0.532564832880000       0.357830539292537     
  0.212023236906000       5.398303027584788E-002
 
          13 0
 s           4   1.00000000000000     
   51.0493630955799      -0.163120632101274     
   8.79112274068875      -0.199110245810007     
  0.706404222589298       0.318820477536558     
  0.269228134134116       0.127065041842404     
 p           4   1.00000000000000     
   5.82636561408000       0.737164515452096     
   1.51068960187200       0.682163716148503     
  0.532564832880000       0.357830539292537     
  0.212023236906000       5.398303027584788E-002
 
          14 0
 s           4   1.00000000000000     
   51.0493630955799      -0.163120632101274     
   8.79112274068875      -0.199110245810007     
  0.706404222589298       0.318820477536558     
  0.269228134134116       0.127065041842404     
 p           4   1.00000000000000     
   5.82636561408000       0.737164515452096     
   1.51068960187200       0.682163716148503     
  0.532564832880000       0.357830539292537     
  0.212023236906000       5.398303027584788E-002
 
          15 0
 s           4   1.00000000000000     
   69.1379619061966      -0.204787563700778     
   11.9061291327073      -0.249970231368273     
  0.956708277443407       0.400258802406396     
  0.364625204960737       0.159522066676936     
 p           4   1.00000000000000     
   8.21241932577816        1.13215567991868     
   2.12935769970981        1.04768407822548     
  0.750664482023609       0.549565082171590     
  0.298852465432831       8.290848659276662E-002
 
          16 0
 d           3   1.00000000000000     
   1.76892529405946       0.753203186464612     
  0.554649143544052       0.343121395345453     
  0.216049510927190       4.571504112348031E-002
 s           4   1.00000000000000     
  0.484305021910859      -4.636945981592795E-002
  0.248442799050972      -7.136369519894825E-002
  7.589881167859050E-002  9.182435292585470E-002
  4.225913696210080E-002  2.336808306286595E-002
 p           4   1.00000000000000     
   2.29582980380542      -2.431126590809542E-002
  0.665645507926723      -5.153561953043185E-002
  0.116177604559644       6.237420692152191E-002
  5.700740464231208E-002  1.635055439582586E-002
 
          17 0
 s           4   1.00000000000000     
   9.34674866189868      -0.125552785052236     
   2.63274953955161      -0.254029831967196     
  0.472092932487140       0.305184566430756     
  0.232271649766237       8.559661830788402E-002
 p           4   1.00000000000000     
   8.96653868620652      -0.317209215069455     
  0.926601749794952       0.357031126383567     
  0.418792332287928       0.280771537007085     
  0.202453454537036       4.152131922185704E-002
 d           3   1.00000000000000     
   3.20597745654841        2.13231494102881     
   1.00523897559031       0.971375176087545     
  0.391565355448865       0.129419082352652     
 
          18 0
 s           4   1.00000000000000     
   63.5940244669410      -0.192343884147216     
   10.9514172315237      -0.234781079249537     
  0.879993102573770       0.375937539017009     
  0.335387152965211       0.149828892718628     
 p           4   1.00000000000000     
   7.29650404814951       0.976586663156674     
   1.89187454507126       0.903722267303458     
  0.666944321108241       0.474049584615364     
  0.265522026741309       7.151606771501186E-002
 
          19 0
 s           4   1.00000000000000     
   51.0493630955799      -0.163120632101274     
   8.79112274068875      -0.199110245810007     
  0.706404222589298       0.318820477536558     
  0.269228134134116       0.127065041842404     
 p           4   1.00000000000000     
   5.82636561408000       0.737164515452096     
   1.51068960187200       0.682163716148503     
  0.532564832880000       0.357830539292537     
  0.212023236906000       5.398303027584788E-002
 
          20 0
 s           4   1.00000000000000     
   51.0493630955799      -0.163120632101274     
   8.79112274068875      -0.199110245810007     
  0.706404222589298       0.318820477536558     
  0.269228134134116       0.127065041842404     
 p           4   1.00000000000000     
   5.82636561408000       0.737164515452096     
   1.51068960187200       0.682163716148503     
  0.532564832880000       0.357830539292537     
  0.212023236906000       5.398303027584788E-002
 
          21 0
 s           4   1.00000000000000     
   51.0493630955799      -0.163120632101274     
   8.79112274068875      -0.199110245810007     
  0.706404222589298       0.318820477536558     
  0.269228134134116       0.127065041842404     
 p           4   1.00000000000000     
   5.82636561408000       0.737164515452096     
   1.51068960187200       0.682163716148503     
  0.532564832880000       0.357830539292537     
  0.212023236906000       5.398303027584788E-002
 
          22 0
 s           4   1.00000000000000     
   51.0493630955799      -0.163120632101274     
   8.79112274068875      -0.199110245810007     
  0.706404222589298       0.318820477536558     
  0.269228134134116       0.127065041842404     
 p           4   1.00000000000000     
   5.82636561408000       0.737164515452096     
   1.51068960187200       0.682163716148503     
  0.532564832880000       0.357830539292537     
  0.212023236906000       5.398303027584788E-002
 
          23 0
 s           4   1.00000000000000     
   51.0493630955799      -0.163120632101274     
   8.79112274068875      -0.199110245810007     
  0.706404222589298       0.318820477536558     
  0.269228134134116       0.127065041842404     
 p           4   1.00000000000000     
   5.82636561408000       0.737164515452096     
   1.51068960187200       0.682163716148503     
  0.532564832880000       0.357830539292537     
  0.212023236906000       5.398303027584788E-002
 
          24 0
 s           4   1.00000000000000     
   51.0493630955799      -0.163120632101274     
   8.79112274068875      -0.199110245810007     
  0.706404222589298       0.318820477536558     
  0.269228134134116       0.127065041842404     
 p           4   1.00000000000000     
   5.82636561408000       0.737164515452096     
   1.51068960187200       0.682163716148503     
  0.532564832880000       0.357830539292537     
  0.212023236906000       5.398303027584788E-002
 
          25 0
 s           4   1.00000000000000     
   51.0493630955799      -0.163120632101274     
   8.79112274068875      -0.199110245810007     
  0.706404222589298       0.318820477536558     
  0.269228134134116       0.127065041842404     
 p           4   1.00000000000000     
   5.82636561408000       0.737164515452096     
   1.51068960187200       0.682163716148503     
  0.532564832880000       0.357830539292537     
  0.212023236906000       5.398303027584788E-002
 
          26 0
 s           4   1.00000000000000     
   63.5940244669410      -0.192343884147216     
   10.9514172315237      -0.234781079249537     
  0.879993102573770       0.375937539017009     
  0.335387152965211       0.149828892718628     
 p           4   1.00000000000000     
   7.29650404814951       0.976586663156674     
   1.89187454507126       0.903722267303458     
  0.666944321108241       0.474049584615364     
  0.265522026741309       7.151606771501186E-002
 
          27 0
 s           4   1.00000000000000     
   51.0493630955799      -0.163120632101274     
   8.79112274068875      -0.199110245810007     
  0.706404222589298       0.318820477536558     
  0.269228134134116       0.127065041842404     
 p           4   1.00000000000000     
   5.82636561408000       0.737164515452096     
   1.51068960187200       0.682163716148503     
  0.532564832880000       0.357830539292537     
  0.212023236906000       5.398303027584788E-002
 
          28 0
 s           4   1.00000000000000     
   51.0493630955799      -0.163120632101274     
   8.79112274068875      -0.199110245810007     
  0.706404222589298       0.318820477536558     
  0.269228134134116       0.127065041842404     
 p           4   1.00000000000000     
   5.82636561408000       0.737164515452096     
   1.51068960187200       0.682163716148503     
  0.532564832880000       0.357830539292537     
  0.212023236906000       5.398303027584788E-002
 
          29 0
 s           4   1.00000000000000     
   51.0493630955799      -0.163120632101274     
   8.79112274068875      -0.199110245810007     
  0.706404222589298       0.318820477536558     
  0.269228134134116       0.127065041842404     
 p           4   1.00000000000000     
   5.82636561408000       0.737164515452096     
   1.51068960187200       0.682163716148503     
  0.532564832880000       0.357830539292537     
  0.212023236906000       5.398303027584788E-002
 
          30 0
 s           4   1.00000000000000     
   51.0493630955799      -0.163120632101274     
   8.79112274068875      -0.199110245810007     
  0.706404222589298       0.318820477536558     
  0.269228134134116       0.127065041842404     
 p           4   1.00000000000000     
   5.82636561408000       0.737164515452096     
   1.51068960187200       0.682163716148503     
  0.532564832880000       0.357830539292537     
  0.212023236906000       5.398303027584788E-002
 
          31 0
 s           4   1.00000000000000     
   51.0493630955799      -0.163120632101274     
   8.79112274068875      -0.199110245810007     
  0.706404222589298       0.318820477536558     
  0.269228134134116       0.127065041842404     
 p           4   1.00000000000000     
   5.82636561408000       0.737164515452096     
   1.51068960187200       0.682163716148503     
  0.532564832880000       0.357830539292537     
  0.212023236906000       5.398303027584788E-002
 
          32 0
 s           4   1.00000000000000     
   51.0493630955799      -0.163120632101274     
   8.79112274068875      -0.199110245810007     
  0.706404222589298       0.318820477536558     
  0.269228134134116       0.127065041842404     
 p           4   1.00000000000000     
   5.82636561408000       0.737164515452096     
   1.51068960187200       0.682163716148503     
  0.532564832880000       0.357830539292537     
  0.212023236906000       5.398303027584788E-002
 
          33 0
 s           4   1.00000000000000     
   51.0493630955799      -0.163120632101274     
   8.79112274068875      -0.199110245810007     
  0.706404222589298       0.318820477536558     
  0.269228134134116       0.127065041842404     
 p           4   1.00000000000000     
   5.82636561408000       0.737164515452096     
   1.51068960187200       0.682163716148503     
  0.532564832880000       0.357830539292537     
  0.212023236906000       5.398303027584788E-002
 
          34 0
 s           4   1.00000000000000     
   51.0493630955799      -0.163120632101274     
   8.79112274068875      -0.199110245810007     
  0.706404222589298       0.318820477536558     
  0.269228134134116       0.127065041842404     
 p           4   1.00000000000000     
   5.82636561408000       0.737164515452096     
   1.51068960187200       0.682163716148503     
  0.532564832880000       0.357830539292537     
  0.212023236906000       5.398303027584788E-002
 
          35 0
 s           4   1.00000000000000     
   51.0493630955799      -0.163120632101274     
   8.79112274068875      -0.199110245810007     
  0.706404222589298       0.318820477536558     
  0.269228134134116       0.127065041842404     
 p           4   1.00000000000000     
   5.82636561408000       0.737164515452096     
   1.51068960187200       0.682163716148503     
  0.532564832880000       0.357830539292537     
  0.212023236906000       5.398303027584788E-002
 
          36 0
 s           4   1.00000000000000     
   51.0493630955799      -0.163120632101274     
   8.79112274068875      -0.199110245810007     
  0.706404222589298       0.318820477536558     
  0.269228134134116       0.127065041842404     
 p           4   1.00000000000000     
   5.82636561408000       0.737164515452096     
   1.51068960187200       0.682163716148503     
  0.532564832880000       0.357830539292537     
  0.212023236906000       5.398303027584788E-002
 
          37 0
 s           4   1.00000000000000     
   51.0493630955799      -0.163120632101274     
   8.79112274068875      -0.199110245810007     
  0.706404222589298       0.318820477536558     
  0.269228134134116       0.127065041842404     
 p           4   1.00000000000000     
   5.82636561408000       0.737164515452096     
   1.51068960187200       0.682163716148503     
  0.532564832880000       0.357830539292537     
  0.212023236906000       5.398303027584788E-002
 
          38 0
 s           4   1.00000000000000     
   51.0493630955799      -0.163120632101274     
   8.79112274068875      -0.199110245810007     
  0.706404222589298       0.318820477536558     
  0.269228134134116       0.127065041842404     
 p           4   1.00000000000000     
   5.82636561408000       0.737164515452096     
   1.51068960187200       0.682163716148503     
  0.532564832880000       0.357830539292537     
  0.212023236906000       5.398303027584788E-002
 
          39 0
 s           4   1.00000000000000     
   51.0493630955799      -0.163120632101274     
   8.79112274068875      -0.199110245810007     
  0.706404222589298       0.318820477536558     
  0.269228134134116       0.127065041842404     
 p           4   1.00000000000000     
   5.82636561408000       0.737164515452096     
   1.51068960187200       0.682163716148503     
  0.532564832880000       0.357830539292537     
  0.212023236906000       5.398303027584788E-002
 
          40 0
 s           4   1.00000000000000     
   51.0493630955799      -0.163120632101274     
   8.79112274068875      -0.199110245810007     
  0.706404222589298       0.318820477536558     
  0.269228134134116       0.127065041842404     
 p           4   1.00000000000000     
   5.82636561408000       0.737164515452096     
   1.51068960187200       0.682163716148503     
  0.532564832880000       0.357830539292537     
  0.212023236906000       5.398303027584788E-002
 
          41 0
 s           4   1.00000000000000     
   51.0493630955799      -0.163120632101274     
   8.79112274068875      -0.199110245810007     
  0.706404222589298       0.318820477536558     
  0.269228134134116       0.127065041842404     
 p           4   1.00000000000000     
   5.82636561408000       0.737164515452096     
   1.51068960187200       0.682163716148503     
  0.532564832880000       0.357830539292537     
  0.212023236906000       5.398303027584788E-002
 
          42 0
 s           4   1.00000000000000     
   69.1379619061966      -0.204787563700778     
   11.9061291327073      -0.249970231368273     
  0.956708277443407       0.400258802406396     
  0.364625204960737       0.159522066676936     
 p           4   1.00000000000000     
   8.21241932577816        1.13215567991868     
   2.12935769970981        1.04768407822548     
  0.750664482023609       0.549565082171590     
  0.298852465432831       8.290848659276662E-002
 
          43 0
 s           3   1.00000000000000     
   3.37022769753360       0.273591105889083     
  0.613891182214980       0.264605406538605     
  0.166142911484160       8.246594753408230E-002
 
          44 0
 s           3   1.00000000000000     
   3.37022769753360       0.273591105889083     
  0.613891182214980       0.264605406538605     
  0.166142911484160       8.246594753408230E-002
 
          45 0
 s           3   1.00000000000000     
   3.37022769753360       0.273591105889083     
  0.613891182214980       0.264605406538605     
  0.166142911484160       8.246594753408230E-002
 
          46 0
 s           3   1.00000000000000     
   3.37022769753360       0.273591105889083     
  0.613891182214980       0.264605406538605     
  0.166142911484160       8.246594753408230E-002
 
          47 0
 s           3   1.00000000000000     
   3.37022769753360       0.273591105889083     
  0.613891182214980       0.264605406538605     
  0.166142911484160       8.246594753408230E-002
 
          48 0
 s           3   1.00000000000000     
   3.37022769753360       0.273591105889083     
  0.613891182214980       0.264605406538605     
  0.166142911484160       8.246594753408230E-002
 
          49 0
 s           3   1.00000000000000     
   3.37022769753360       0.273591105889083     
  0.613891182214980       0.264605406538605     
  0.166142911484160       8.246594753408230E-002
 
          50 0
 s           3   1.00000000000000     