87
 energy: -118.336398923687 gnorm: 0.000176141919 xtb: 6.7.1 (edcfbbe)
C            7.53667012789334       -1.44410273385243        0.28445176091535
C            6.92999521405283       -0.08859468729716       -0.08791332249942
C            7.51111956858133        0.96916976507044        0.86066273729952
C            7.33479595540004        0.23315039733878       -1.53382560998157
C            5.41088219146904       -0.07043221483120        0.00958798227248
C            4.71719937483460        1.07512106372170       -0.27535804686421
C            3.31043594638469        1.12263370157964       -0.21689070206503
C            2.55640822114906       -0.04654328195676        0.11751751168520
C            3.29057998563227       -1.23251861782087        0.44244826839252
C            2.53208288312164       -2.49306753839064        0.83315120969025
C            1.68554433021746       -2.94154554037268       -0.36570143384907
C            3.45496051113257       -3.65377466949429        1.22042991557927
C            1.63628297887804       -2.18490773266098        2.03992143562132
C            4.66176906434308       -1.20393501004307        0.37736399743645
O            1.27293645679016       -0.02728526790512        0.08502923274876
Co           0.03942311846254        1.25832332723425       -0.14999006061067
N            1.36089616165089        2.52638436532397       -0.50572310683394
C            2.65654562665333        2.33031051030408       -0.51963241776356
C            0.83827417317792        3.78062748575498       -0.82474012248609
C            1.54475238651010        4.96904553679342       -0.99198826843974
C            0.86937324484470        6.14127968323815       -1.27783824165205
C           -0.51190685993763        6.14892013240011       -1.38678540228285
C           -1.23196750234596        4.98133645928465       -1.21438351892667
C           -0.56604447429610        3.78866429375605       -0.94622420879592
N           -1.15392939370962        2.54725831303150       -0.71642661274952
C           -2.40945315671216        2.33944449414147       -1.03351461170436
C           -3.15813857717563        1.20223832716319       -0.68344538820369
C           -4.51219304942669        1.12873422320912       -1.07420600805188
C           -5.30763049177138        0.08889146814442       -0.68343282184853
C           -6.75692978064015       -0.07274692251014       -1.11234265196090
C           -6.90644350243746       -1.40328108804323       -1.86384314988870
C           -7.21791981743709        1.05280500019192       -2.04237794480510
C           -7.66144143850723       -0.07022157810496        0.12764782711609
C           -4.73726409996071       -0.87781796594882        0.17219888420047
C           -3.43294487418444       -0.86710629186041        0.59247997477024
C           -2.87912225304655       -1.93615093297614        1.52338667431286
C           -2.26418008781587       -1.26113858982953        2.75718822751144
C           -1.80778632547125       -2.73161884326943        0.76949337448660
C           -3.95057344990503       -2.91662459512190        2.01259160339590
C           -2.56455856418225        0.16791649040672        0.10897253745801
O           -1.31069894269511        0.18400552222013        0.38119158268896
H            8.62019761419968       -1.39064623950633        0.19708024637900
H            7.18646123427585       -2.22773976690899       -0.38330647018477
H            7.29663789230450       -1.71285607625607        1.31052637353457
H            7.20647969013520        0.76327430112494        1.88452253803312
H            8.59818805285736        0.95888428965470        0.81443915791292
H            7.16966756807946        1.96646008738081        0.59827514761032
H            8.41798646338427        0.21438544960061       -1.63531785617353
H            6.91085063372025       -0.50216867833978       -2.21448909101423
H            6.98106217956379        1.21588087163001       -1.83291852158400
H            5.23324947695307        1.98174178937425       -0.55689895882488
H            1.10230742087202       -3.82221485910172       -0.10669730650690
H            2.33068565305637       -3.18643055386270       -1.20783863973985
H            1.00627538769577       -2.15182407960367       -0.66973756550121
H            4.08470084883824       -3.39244298626798        2.06811669482019
H            2.84581905700037       -4.50880400650812        1.50689690669212
H            4.08302944543940       -3.95931752463946        0.38647472976654
H            1.09122277227786       -3.07734183558617        2.33852414722487
H            0.92045668874057       -1.40673295799752        1.79805810868746
H            2.24319922594734       -1.85206619675865        2.88024854299769
H            5.19947557120107       -2.10288454172035        0.61646671362550
H            3.30912818445351        3.15504880556792       -0.79745692719159
H            2.61697511245177        5.00506571283784       -0.87944691982285
H            1.42472612829977        7.05895210388374       -1.39914648354090
H           -1.03244513196737        7.07233748940329       -1.59030025825968
H           -2.30925271680507        5.01786694108046       -1.26092604343367
H           -2.94344512804989        3.10880240298550       -1.58800856015323
H           -4.88989984741424        1.92831942795708       -1.69164981533287
H           -6.64880983843675       -2.24799959266001       -1.23125556091908
H           -6.25272143808702       -1.41774013010124       -2.73341140114369
H           -7.93313141935725       -1.53104571307405       -2.20071303935905
H           -7.16340365701574        2.01808761443006       -1.54446423375284
H           -6.61440202662191        1.08268297322875       -2.94652167715416
H           -8.25253820123690        0.88313514824308       -2.33371851446562
H           -7.53737855827343        0.85831480196057        0.68093774363222
H           -7.42729786061838       -0.89659358339819        0.79273387091461
H           -8.70435944334932       -0.15897464457432       -0.16958251948026
H           -5.37893412217826       -1.67287608008665        0.51106959479915
H           -1.45950626777258       -0.59267027696535        2.46905281987670
H           -1.86194241492024       -2.01318661351808        3.43256301529620
H           -3.02168347590901       -0.68724237489268        3.28832627616610
H           -2.24089671581141       -3.21337088584353       -0.10535694071587
H           -1.01233300911689       -2.07010234543100        0.44627436648471
H           -1.38634312277611       -3.49811837291339        1.41580910032450
H           -4.37668052814050       -3.48473488128926        1.18849496654678
H           -3.49420795202193       -3.62462124033151        2.70150902023341
H           -4.74697030568304       -2.39933963017937        2.54363213707424
