94
 energy: -125.213040906651 gnorm: 0.000201225913 xtb: 6.7.1 (edcfbbe)
C            6.93159894270920        0.01824238642933       -2.56490678852762
C            6.73566918035687        0.35580252912641       -1.08027293128636
C            7.19243577390926        1.79967909625789       -0.85489911059817
C            7.61350258811734       -0.56163953852468       -0.21730483253584
C            5.27738201515489        0.14331595380343       -0.70594443972540
C            4.46732969962973        1.13508507080047       -0.22349885682308
C            3.12489693119471        0.88453562231369        0.12578676410454
C            2.57405891871651       -0.42836936224702       -0.01863803525614
C            3.42573348522641       -1.46140935355549       -0.52669168422256
C            2.86833850550191       -2.86553926874055       -0.71397885013609
C            2.37162855479573       -3.40374977466348        0.63525763867100
C            1.71035741312965       -2.79649540306695       -1.71757839821524
C            3.90586275656154       -3.85281893630363       -1.25936730150376
C            4.72011062407258       -1.14283106441812       -0.84935526018558
O            1.36065133523858       -0.66419925330809        0.34296920381775
Mn          -0.00855912418206        0.37340553352085        0.93432794868540
Cl           0.30947740467555       -0.41821192675469        2.95041431949143
N            1.13983885620795        1.83161486140044        1.15305506098553
C            2.36134630148926        1.93420648729647        0.68675441943885
C            0.60787939710501        3.00973457531689        1.83691577507592
C            1.55407901780045        3.59183211857433        2.90216758311080
C            0.76173450326037        4.32362997567492        3.99416238477750
C           -0.50335372394627        4.94851284014072        3.41300335489398
C           -1.47722325309353        3.86573703016325        2.91967022062919
C           -0.70386870801851        2.60299321710811        2.52250320753822
N           -1.36455636029817        1.64927728608315        1.65022816189371
C           -2.64391858988034        1.65678045863298        1.51582377426796
C           -3.35990571648585        0.74681786463830        0.66629322432782
C           -4.75518504708580        0.78945198346334        0.62208802867612
C           -5.46742989061419       -0.07842684140247       -0.17905041481269
C           -6.98656026127213       -0.09588004480881       -0.24627051359647
C           -7.62362700535638        0.96079921726034        0.66010639129469
C           -7.43298672393995        0.17823998997474       -1.68908236410801
C           -7.48980200481132       -1.47526155996945        0.20213869235354
C           -4.74061231730202       -0.99107213085920       -0.94885209693192
C           -3.36015264748212       -1.07267404901023       -0.95408145615865
C           -2.61295521432372       -2.11362515803809       -1.77563138924068
C           -1.64023675845728       -1.40619881590368       -2.72970456469755
C           -1.85559858806891       -3.03519283266291       -0.80868506410806
C           -3.54424402423802       -2.98554425337168       -2.62454344401209
C           -2.63960471899173       -0.18245146777311       -0.12410331566990
O           -1.32794959642305       -0.18790864985312       -0.05316202491389
H            7.96763840964797        0.18365780368039       -2.85330456401729
H            6.29594639149210        0.65103903543495       -3.18083320032031
H            6.68311566927530       -1.01869083315764       -2.77263469167808
H            8.23932967245879        1.89747349796114       -1.13528047106393
H            6.61534277477688        2.49187229653070       -1.46362332089354
H            7.09707036877545        2.07915524698803        0.19167034095797
H            8.66446832905070       -0.40222443132155       -0.44969127619486
H            7.38343802684360       -1.60924766304879       -0.38886578160687
H            7.45565498032590       -0.34727816955746        0.83745662142870
H            4.83054965364514        2.14111542977535       -0.08508876429594
H            1.94513657046905       -4.39669183843002        0.50688902277714
H            3.19845048685819       -3.46874039807012        1.33980694502381
H            1.61125593677618       -2.75661093832258        1.06277645352507
H            1.28986707700631       -3.78777417624021       -1.87432877874280
H            2.06145041359465       -2.41189416955107       -2.67437446940979
H            0.92819386333691       -2.14357426345185       -1.34603353580739
H            3.44245082466305       -4.83214812319891       -1.36222854128783
H            4.26564250113771       -3.54970360522268       -2.24063140033174
H            4.75000956309433       -3.95363683846839       -0.58084524421172
H            5.36036001845371       -1.91934626163924       -1.23063357435538
H            2.86373674986857        2.89705756524563        0.76074586705280
H            0.38363307989825        3.77154647691929        1.07403816934167
H            2.12472781108557        2.77246233801732        3.34293879960404
H            2.25498677889038        4.28631866052887        2.43641109710622
H            1.38783353152620        5.09882526360888        4.43793450175091
H            0.48553827148019        3.63028904100554        4.78858786967099
H           -0.99486457739015        5.56457989970438        4.16692009998396
H           -0.22374355575382        5.60615745242219        2.58778146718753
H           -2.18810392689778        3.62261409205938        3.71049953910194
H           -2.03449750198501        4.24662908363976        2.06052310091070
H           -0.43830721017312        2.02741360888281        3.42100977407634
H           -3.25524118972523        2.38000876623941        2.05272084261895
H           -5.25180069462502        1.51573619246909        1.24521526204686
H           -7.31486311582745        1.96261347720814        0.37061634470964
H           -7.36021895772915        0.79163052584914        1.70143408872233
H           -8.70691346201952        0.90574384552700        0.57484166432111
H           -7.05981203242841       -0.57988330707171       -2.37174462052283
H           -7.06301823558814        1.14658665961758       -2.01952849510977
H           -8.51916005249840        0.18454352643437       -1.74959583539259
H           -8.57741340074334       -1.49806563143856        0.19314191386026
H           -7.14763636929769       -1.68895665780487        1.21240027369278
H           -7.12867130232977       -2.26286474714109       -0.45301073343936
H           -5.29313004690383       -1.67451446989760       -1.56999638639400
H           -1.08318201178151       -2.13977143634146       -3.30858614556798
H           -0.92897933599677       -0.79243667254879       -2.18278518546498
H           -2.19018395173073       -0.76497295813352       -3.41725841387958
H           -1.30219875290317       -3.78841589380932       -1.36473631074089
H           -2.55799879559919       -3.53819645987478       -0.14625217488874
H           -1.15388868606239       -2.47479247685126       -0.19549101485317
H           -4.23084514130353       -3.55465866303448       -2.00189139471756
H           -4.11181811357647       -2.38566524360223       -3.33302555988263
H           -2.94491926412939       -3.69450787111370       -3.19212319140637
