78
 energy: -127.704471803051 gnorm: 0.000291425792 xtb: 6.7.1 (edcfbbe)
Cl          -0.54238851908207       -0.18917958565120       -2.20079844889928
Mn          -0.03916504764020       -0.01364342267758       -0.15393937694128
N            1.40566756303816       -1.39638933185950       -0.17692844711000
C            1.26988625810221       -2.74277598121650        0.03101144108505
C            2.44652254650899       -3.43704635600738       -0.39782871738084
C            3.30226193510110       -2.50109529642864       -0.87210587812567
C            2.66116522653156       -1.23182732274876       -0.70374540463412
C            3.26717433428002       -0.00785326703603       -0.96959615078091
C            4.63726956994221        0.01067218612221       -1.52106426717587
C            5.71034315798427       -0.51595143296431       -0.80930093779521
C            6.98539329452913       -0.48619129280912       -1.34495289350058
C            7.20212529065061        0.06398403736826       -2.59718709590747
C            6.13863240765500        0.59187945377334       -3.31048581802936
C            4.86397076733109        0.57077009275015       -2.77502058214717
C            2.65334373809191        1.21620483608745       -0.71349125803773
C            3.34637190108921        2.46909579468089       -0.75242859105302
C            2.44518788110550        3.42513105151021       -0.42747910436106
C            1.19272683356897        2.75998630992926       -0.22253978665649
N            1.34597441518072        1.40299005898714       -0.35089402897048
C           -0.00956196914994        3.42249414003547        0.00469737408307
C           -0.01019139924593        4.89957799328173        0.03107026880012
C            0.36075937600845        5.62979794107091       -1.09387392921038
C            0.36251651809632        7.01239101845388       -1.05958503647395
C            0.00036066535983        7.68123846455418        0.09794700379426
C           -0.37248626822914        6.96112048867226        1.22059642114087
C           -0.38286466886854        5.57849178142991        1.18730941413437
C           -1.22263379056119        2.75875598060916        0.17027441636600
C           -2.49103784707984        3.42092589194363        0.22295131513882
C           -3.43153307171650        2.45542929138224        0.35143470787769
C           -2.73535065275015        1.20546597277984        0.41075768359477
N           -1.38559017296148        1.40284534758281        0.26815868729652
C           -3.34677542225621       -0.02016604578833        0.65649570325580
C           -4.81508653053740       -0.07258351881064        0.80661066124368
C           -5.46297260074014        0.61445817035926        1.82830753152605
C           -6.83970747660217        0.55242395702272        1.94797312602842
C           -7.58431639115171       -0.19153605063628        1.04805029206099
C           -6.94562079829686       -0.88086484642539        0.03050184356975
C           -5.56906688939443       -0.82668800539805       -0.08815340147864
C           -2.63567525743591       -1.21009443156917        0.79653253000996
N           -1.30227357674499       -1.38798471579481        0.53971163116289
C           -1.05324232697791       -2.71155354512296        0.80003190123555
C            0.14371333239144       -3.37601523632878        0.55113615536315
C            0.21634639756331       -4.82839829049630        0.81129781770019
C            1.11043330351955       -5.32554502607291        1.75488810214317
C            1.17615537867864       -6.68340889613540        2.00903103460053
C            0.35746878770109       -7.56084528822556        1.31780710414076
C           -0.52820658262760       -7.07423247837141        0.37065411714256
C           -0.60196588244976       -5.71615646094711        0.11957459513302
C           -2.23140572825013       -3.35043148571338        1.30677187704570
C           -3.21793317065695       -2.42406086944605        1.28523155703884
H            2.57841377790817       -4.50058847532624       -0.36133602904753
H            4.27382940119501       -2.64738714231595       -1.30083656563263
H            5.54219405077767       -0.93574351410219        0.17210509733267
H            7.81282753349545       -0.89438496880499       -0.78302562550683
H            8.19768421741041        0.08275064060870       -3.01518072899514
H            6.30305187098312        1.02304431020766       -4.28704183750290
H            4.03026868709559        0.97671038438975       -3.32885077625927
H            4.38912708357536        2.58528260877989       -0.97410463601634
H            2.60293700197921        4.48118604750172       -0.33037206301351
H            0.63395287182229        5.10509352919259       -1.99762588735237
H            0.64811404124474        7.57004940075660       -1.93943816829452
H            0.00709574033349        8.76079712333694        0.12471080445065
H           -0.65595939909642        7.47827412747022        2.12566101831519
H           -0.66939613073242        5.01493977452624        2.06367000191248
H           -2.63283822001725        4.48086185757954        0.14364558114582
H           -4.49644403760869        2.56935322104614        0.39719000246342
H           -4.88068030182839        1.18570410208373        2.53699624969886
H           -7.33315934724267        1.08678542062256        2.74671086710425
H           -8.65936317581444       -0.23527253195025        1.14075556682677
H           -7.52206307538970       -1.46312655798547       -0.67324223718145
H           -5.06655686865048       -1.35725900528996       -0.88346583708261
H            1.74569461883435       -4.63902872375015        2.29602572686164
H            1.86871678340607       -7.05805865124677        2.74858865441532
H            0.41080654880730       -8.62111045889430        1.51577468392021
H           -1.16439624766429       -7.75555510528288       -0.17501129716958
H           -1.28460585767827       -5.33442376059582       -0.62540216447841
H           -2.28445333681972       -4.36979722641970        1.63491236905002
H           -4.23951706895012       -2.53270820590050        1.59277007093076
