[Molden Format]
[Title]
[Atoms] AU
Cl     1    17 -0.11241103817824E+01  0.38775705742493E+01 -0.47580489435809E+01
Co     2    27 -0.40941573834218E+00  0.16493104319319E+00 -0.38484931030945E+01
Cl     3    17  0.26491404187141E+00 -0.37602981278192E+01 -0.43734402832773E+01
P      4    15 -0.31523048142929E+01 -0.12720162057729E+00 -0.63775419460429E+00
C      5     6 -0.51541868264449E+01  0.25513748671408E+01  0.13206385819261E+00
C      6     6 -0.77566085260739E+01  0.23910312771773E+01 -0.22569925241088E+00
C      7     6 -0.92716440647659E+01  0.44787815873519E+01  0.18821475247358E+00
C      8     6 -0.82043065966931E+01  0.67521863786158E+01  0.92539837162527E+00
C      9     6 -0.56096413767985E+01  0.69389867141688E+01  0.12196070373860E+01
C     10     6 -0.40857869045020E+01  0.48584830306115E+01  0.80777241624889E+00
C     11     6 -0.51823262549183E+01 -0.28128168350969E+01  0.10451472793231E+00
C     12     6 -0.64450393151562E+01 -0.29060591697867E+01  0.24140704457920E+01
C     13     6 -0.79718474122609E+01 -0.49444302081711E+01  0.29859398915687E+01
C     14     6 -0.82564270020301E+01 -0.68993392910589E+01  0.12635208136892E+01
C     15     6 -0.70200875769398E+01 -0.68040584949364E+01 -0.10388793662217E+01
C     16     6 -0.54897571693881E+01 -0.47627963651075E+01 -0.16240847314283E+01
C     17     6 -0.89953630796624E+00 -0.24103233726125E+00  0.20613195647292E+01
C     18     6  0.14035015599298E+01 -0.18288146674622E+01  0.13510046714015E+01
P     19    15  0.29551760338663E+01 -0.31810582327638E+00 -0.13947719433900E+01
C     20     6  0.44423375613930E+01  0.23549363815413E+01  0.22806973120130E+00
C     21     6  0.63318122183142E+01  0.19214800807575E+01  0.20078500623832E+01
C     22     6  0.74064330255991E+01  0.39292559716019E+01  0.32848269170613E+01
C     23     6  0.66092342059566E+01  0.63774402514451E+01  0.27962872417352E+01
C     24     6  0.47425150683204E+01  0.68155638711611E+01  0.10170385233696E+01
C     25     6  0.36616756530784E+01  0.48095126674214E+01 -0.27117904715109E+00
C     26     6  0.56889595720792E+01 -0.22566635841868E+01 -0.20863658827394E+01
C     27     6  0.57969147434955E+01 -0.48346306619184E+01 -0.15974121233733E+01
C     28     6  0.79293444367307E+01 -0.61924924654545E+01 -0.22653471692035E+01
C     29     6  0.99439073707988E+01 -0.50027315048062E+01 -0.34384498851951E+01
C     30     6  0.98266941097170E+01 -0.24387496886977E+01 -0.39624048331458E+01
C     31     6  0.77045744607013E+01 -0.10716181124767E+01 -0.32987875212670E+01
H     32     1 -0.85899503302632E+01  0.62527366755425E+00 -0.82942328909518E+00
H     33     1 -0.11290047501346E+02  0.43352637925150E+01 -0.81052296891978E-01
H     34     1 -0.93899083521748E+01  0.83827945432308E+01  0.12415680456301E+01
H     35     1 -0.47679430071096E+01  0.87201175887269E+01  0.17524671754269E+01
H     36     1 -0.20593187466560E+01  0.50396586444558E+01  0.97067554529799E+00
H     37     1 -0.62520964858461E+01 -0.13659862080202E+01  0.37446954391657E+01
H     38     1 -0.89478801300369E+01 -0.50096509907767E+01  0.47780358134686E+01
H     39     1 -0.94511660648795E+01 -0.84898230830772E+01  0.17202980707361E+01
H     40     1 -0.72464918911380E+01 -0.83200334479184E+01 -0.23857065741176E+01
H     41     1 -0.45058658340142E+01 -0.46868137077703E+01 -0.34101197546328E+01
H     42     1 -0.30299921288689E+00  0.16914237433945E+01  0.24888022720730E+01
H     43     1 -0.18561903661298E+01 -0.10263016815650E+01  0.37165434916009E+01
H     44     1  0.80538506065317E+00 -0.37280152576588E+01  0.80379071176037E+00
H     45     1  0.27387618478409E+01 -0.19483997698649E+01  0.29261163715485E+01
H     46     1  0.69677494342969E+01  0.12578438004318E-01  0.23712585852790E+01
H     47     1  0.88728048787467E+01  0.35872893895874E+01  0.46637078838171E+01
H     48     1  0.74561929041690E+01  0.79406458606039E+01  0.37987723878008E+01
H     49     1  0.41301938020087E+01  0.87219175814978E+01  0.62212312105203E+00
H     50     1  0.22166202964040E+01  0.51345974980966E+01 -0.16802461787867E+01
H     51     1  0.42153285125723E+01 -0.57825866112306E+01 -0.72735599014571E+00
H     52     1  0.80127587270692E+01 -0.81949979548538E+01 -0.18785713551727E+01
H     53     1  0.11599190782580E+02 -0.60757989942970E+01 -0.39616498270931E+01
H     54     1  0.11385647944710E+02 -0.15115729521497E+01 -0.48984914150166E+01
H     55     1  0.75842559379075E+01  0.92872417327369E+00 -0.37126189803498E+01
[GTO]
           1 0
 s           4   1.00000000000000     
   9.34674866189868      -0.125552785052236     
   2.63274953955161      -0.254029831967196     
  0.472092932487140       0.305184566430756     
  0.232271649766237       8.559661830788402E-002
 p           4   1.00000000000000     
   8.96653868620652      -0.317209215069455     
  0.926601749794952       0.357031126383567     
  0.418792332287928       0.280771537007085     
  0.202453454537036       4.152131922185704E-002
 d           3   1.00000000000000     
   3.20597745654841        2.13231494102881     
   1.00523897559031       0.971375176087545     
  0.391565355448865       0.129419082352652     
 
           2 0
 d           3   1.00000000000000     
   2.83032749122080        1.71448916425323     
  0.887453373088594       0.781034818910538     
  0.345684960408215       0.104059494248144     
 s           4   1.00000000000000     
  0.695111995148816      -6.080424419252015E-002
  0.356584305170521      -9.357916970744833E-002
  0.108935840076917       0.120409217624872     
  6.065357920736102E-002  3.064255297573086E-002
 p           4   1.00000000000000     
   2.51737953400177      -2.727839620888233E-002
  0.729880924002924      -5.782541533360520E-002
  0.127388852406668       6.998682569851342E-002
  6.250867267915186E-002  1.834609940635387E-002
 
           3 0
 s           4   1.00000000000000     
   9.34674866189868      -0.125552785052236     
   2.63274953955161      -0.254029831967196     
  0.472092932487140       0.305184566430756     
  0.232271649766237       8.559661830788402E-002
 p           4   1.00000000000000     
   8.96653868620652      -0.317209215069455     
  0.926601749794952       0.357031126383567     
  0.418792332287928       0.280771537007085     
  0.202453454537036       4.152131922185704E-002
 d           3   1.00000000000000     
   3.20597745654841        2.13231494102881     
   1.00523897559031       0.971375176087545     
  0.391565355448865       0.129419082352652     
 
           4 0
 s           4   1.00000000000000     
   4.99572725094895      -7.848378999131229E-002
   1.40717367027065      -0.158795553402872     
  0.252328121052452       0.190772681070961     
  0.124146465507327       5.350695336983156E-002
 p           4   1.00000000000000     
   6.71286585058286      -0.220902037941297     
  0.693707288951699       0.248633708227354     
  0.313531993145390       0.195527121452620     
  0.151568283911478       2.891512477691128E-002
 d           3   1.00000000000000     
  0.712797703517466       0.153501119911119     
  0.223498774710177       6.992737072477515E-002
  8.705828095292989E-002  9.316622838752151E-003
 
           5 0
 s           4   1.00000000000000     
   51.0493630955799      -0.163120632101274     
   8.79112274068875      -0.199110245810007     
  0.706404222589298       0.318820477536558     
  0.269228134134116       0.127065041842404     
 p           4   1.00000000000000     
   5.82636561408000       0.737164515452096     
   1.51068960187200       0.682163716148503     
  0.532564832880000       0.357830539292537     
  0.212023236906000       5.398303027584788E-002
 
           6 0
 s           4   1.00000000000000     
   51.0493630955799      -0.163120632101274     
   8.79112274068875      -0.199110245810007     
  0.706404222589298       0.318820477536558     
  0.269228134134116       0.127065041842404     
 p           4   1.00000000000000     
   5.82636561408000       0.737164515452096     
   1.51068960187200       0.682163716148503     
  0.532564832880000       0.357830539292537     
  0.212023236906000       5.398303027584788E-002
 
           7 0
 s           4   1.00000000000000     
   51.0493630955799      -0.163120632101274     
   8.79112274068875      -0.199110245810007     
  0.706404222589298       0.318820477536558     
  0.269228134134116       0.127065041842404     
 p           4   1.00000000000000     
   5.82636561408000       0.737164515452096     
   1.51068960187200       0.682163716148503     
  0.532564832880000       0.357830539292537     
  0.212023236906000       5.398303027584788E-002
 
           8 0
 s           4   1.00000000000000     
   51.0493630955799      -0.163120632101274     
   8.79112274068875      -0.199110245810007     
  0.706404222589298       0.318820477536558     
  0.269228134134116       0.127065041842404     
 p           4   1.00000000000000     
   5.82636561408000       0.737164515452096     
   1.51068960187200       0.682163716148503     
  0.532564832880000       0.357830539292537     
  0.212023236906000       5.398303027584788E-002
 
           9 0
 s           4   1.00000000000000     
   51.0493630955799      -0.163120632101274     
   8.79112274068875      -0.199110245810007     
  0.706404222589298       0.318820477536558     
  0.269228134134116       0.127065041842404     
 p           4   1.00000000000000     
   5.82636561408000       0.737164515452096     
   1.51068960187200       0.682163716148503     
  0.532564832880000       0.357830539292537     
  0.212023236906000       5.398303027584788E-002
 
          10 0
 s           4   1.00000000000000     
   51.0493630955799      -0.163120632101274     
   8.79112274068875      -0.199110245810007     
  0.706404222589298       0.318820477536558     
  0.269228134134116       0.127065041842404     
 p           4   1.00000000000000     
   5.82636561408000       0.737164515452096     
   1.51068960187200       0.682163716148503     
  0.532564832880000       0.357830539292537     
  0.212023236906000       5.398303027584788E-002
 
          11 0
 s           4   1.00000000000000     
   51.0493630955799      -0.163120632101274     
   8.79112274068875      -0.199110245810007     
  0.706404222589298       0.318820477536558     
  0.269228134134116       0.127065041842404     
 p           4   1.00000000000000     
   5.82636561408000       0.737164515452096     
   1.51068960187200       0.682163716148503     
  0.532564832880000       0.357830539292537     
  0.212023236906000       5.398303027584788E-002
 
          12 0
 s           4   1.00000000000000     
   51.0493630955799      -0.163120632101274     
   8.79112274068875      -0.199110245810007     
  0.706404222589298       0.318820477536558     
  0.269228134134116       0.127065041842404     
 p           4   1.00000000000000     
   5.82636561408000       0.737164515452096     
   1.51068960187200       0.682163716148503     
  0.532564832880000       0.357830539292537     
  0.212023236906000       5.398303027584788E-002
 
          13 0
 s           4   1.00000000000000     
   51.0493630955799      -0.163120632101274     
   8.79112274068875      -0.199110245810007     
  0.706404222589298       0.318820477536558     
  0.269228134134116       0.127065041842404     
 p           4   1.00000000000000     
   5.82636561408000       0.737164515452096     
   1.51068960187200       0.682163716148503     
  0.532564832880000       0.357830539292537     
  0.212023236906000       5.398303027584788E-002
 
          14 0
 s           4   1.00000000000000     
   51.0493630955799      -0.163120632101274     
   8.79112274068875      -0.199110245810007     
  0.706404222589298       0.318820477536558     
  0.269228134134116       0.127065041842404     
 p           4   1.00000000000000     
   5.82636561408000       0.737164515452096     
   1.51068960187200       0.682163716148503     
  0.532564832880000       0.357830539292537     
  0.212023236906000       5.398303027584788E-002
 
          15 0
 s           4   1.00000000000000     
   51.0493630955799      -0.163120632101274     
   8.79112274068875      -0.199110245810007     
  0.706404222589298       0.318820477536558     
  0.269228134134116       0.127065041842404     
 p           4   1.00000000000000     
   5.82636561408000       0.737164515452096     
   1.51068960187200       0.682163716148503     
  0.532564832880000       0.357830539292537     
  0.212023236906000       5.398303027584788E-002
 
          16 0
 s           4   1.00000000000000     
   51.0493630955799      -0.163120632101274     
   8.79112274068875      -0.199110245810007     
  0.706404222589298       0.318820477536558     
  0.269228134134116       0.127065041842404     
 p           4   1.00000000000000     
   5.82636561408000       0.737164515452096     
   1.51068960187200       0.682163716148503     
  0.532564832880000       0.357830539292537     
  0.212023236906000       5.398303027584788E-002
 
          17 0
 s           4   1.00000000000000     
   51.0493630955799      -0.163120632101274     
   8.79112274068875      -0.199110245810007     
  0.706404222589298       0.318820477536558     
  0.269228134134116       0.127065041842404     
 p           4   1.00000000000000     
   5.82636561408000       0.737164515452096     
   1.51068960187200       0.682163716148503     
  0.532564832880000       0.357830539292537     
  0.212023236906000       5.398303027584788E-002
 
          18 0
 s           4   1.00000000000000     
   51.0493630955799      -0.163120632101274     
   8.79112274068875      -0.199110245810007     
  0.706404222589298       0.318820477536558     
  0.269228134134116       0.127065041842404     
 p           4   1.00000000000000     
   5.82636561408000       0.737164515452096     
   1.51068960187200       0.682163716148503     
  0.532564832880000       0.357830539292537     
  0.212023236906000       5.398303027584788E-002
 
          19 0
 s           4   1.00000000000000     
   4.99572725094895      -7.848378999131229E-002
   1.40717367027065      -0.158795553402872     
  0.252328121052452       0.190772681070961     
  0.124146465507327       5.350695336983156E-002
 p           4   1.00000000000000     
   6.71286585058286      -0.220902037941297     
  0.693707288951699       0.248633708227354     
  0.313531993145390       0.195527121452620     
  0.151568283911478       2.891512477691128E-002
 d           3   1.00000000000000     
  0.712797703517466       0.153501119911119     
  0.223498774710177       6.992737072477515E-002
  8.705828095292989E-002  9.316622838752151E-003
 
          20 0
 s           4   1.00000000000000     
   51.0493630955799      -0.163120632101274     
   8.79112274068875      -0.199110245810007     
  0.706404222589298       0.318820477536558     
  0.269228134134116       0.127065041842404     
 p           4   1.00000000000000     
   5.82636561408000       0.737164515452096     
   1.51068960187200       0.682163716148503     
  0.532564832880000       0.357830539292537     
  0.212023236906000       5.398303027584788E-002
 
          21 0
 s           4   1.00000000000000     
   51.0493630955799      -0.163120632101274     
   8.79112274068875      -0.199110245810007     
  0.706404222589298       0.318820477536558     
  0.269228134134116       0.127065041842404     
 p           4   1.00000000000000     
   5.82636561408000       0.737164515452096     
   1.51068960187200       0.682163716148503     
  0.532564832880000       0.357830539292537     
  0.212023236906000       5.398303027584788E-002
 
          22 0
 s           4   1.00000000000000     
   51.0493630955799      -0.163120632101274     
   8.79112274068875      -0.199110245810007     
  0.706404222589298       0.318820477536558     
  0.269228134134116       0.127065041842404     
 p           4   1.00000000000000     
   5.82636561408000       0.737164515452096     
   1.51068960187200       0.682163716148503     
  0.532564832880000       0.357830539292537     
  0.212023236906000       5.398303027584788E-002
 
          23 0
 s           4   1.00000000000000     
   51.0493630955799      -0.163120632101274     
   8.79112274068875      -0.199110245810007     
  0.706404222589298       0.318820477536558     
  0.269228134134116       0.127065041842404     
 p           4   1.00000000000000     
   5.82636561408000       0.737164515452096     
   1.51068960187200       0.682163716148503     
  0.532564832880000       0.357830539292537     
  0.212023236906000       5.398303027584788E-002
 
          24 0
 s           4   1.00000000000000     
   51.0493630955799      -0.163120632101274     
   8.79112274068875      -0.199110245810007     
  0.706404222589298       0.318820477536558     
  0.269228134134116       0.127065041842404     
 p           4   1.00000000000000     
   5.82636561408000       0.737164515452096     
   1.51068960187200       0.682163716148503     
  0.532564832880000       0.357830539292537     
  0.212023236906000       5.398303027584788E-002
 
          25 0
 s           4   1.00000000000000     
   51.0493630955799      -0.163120632101274     
   8.79112274068875      -0.199110245810007     
  0.706404222589298       0.318820477536558     
  0.269228134134116       0.127065041842404     
 p           4   1.00000000000000     
   5.82636561408000       0.737164515452096     
   1.51068960187200       0.682163716148503     
  0.532564832880000       0.357830539292537     
  0.212023236906000       5.398303027584788E-002
 
          26 0
 s           4   1.00000000000000     
   51.0493630955799      -0.163120632101274     
   8.79112274068875      -0.199110245810007     
  0.706404222589298       0.318820477536558     
  0.269228134134116       0.127065041842404     
 p           4   1.00000000000000     
   5.82636561408000       0.737164515452096     
   1.51068960187200       0.682163716148503     
  0.532564832880000       0.357830539292537     
  0.212023236906000       5.398303027584788E-002
 
          27 0
 s           4   1.00000000000000     
   51.0493630955799      -0.163120632101274     
   8.79112274068875      -0.199110245810007     
  0.706404222589298       0.318820477536558     
  0.269228134134116       0.127065041842404     
 p           4   1.00000000000000     
   5.82636561408000       0.737164515452096     
   1.51068960187200       0.682163716148503     
  0.532564832880000       0.357830539292537     
  0.212023236906000       5.398303027584788E-002
 
          28 0
 s           4   1.00000000000000     
   51.0493630955799      -0.163120632101274     
   8.79112274068875      -0.199110245810007     
  0.706404222589298       0.318820477536558     
  0.269228134134116       0.127065041842404     
 p           4   1.00000000000000     
   5.82636561408000       0.737164515452096     
   1.51068960187200       0.682163716148503     
  0.532564832880000       0.357830539292537     
  0.212023236906000       5.398303027584788E-002
 
          29 0
 s           4   1.00000000000000     
   51.0493630955799      -0.163120632101274     
   8.79112274068875      -0.199110245810007     
  0.706404222589298       0.318820477536558     
  0.269228134134116       0.127065041842404     
 p           4   1.00000000000000     
   5.82636561408000       0.737164515452096     
   1.51068960187200       0.682163716148503     
  0.532564832880000       0.357830539292537     
  0.212023236906000       5.398303027584788E-002
 
          30 0
 s           4   1.00000000000000     
   51.0493630955799      -0.163120632101274     
   8.79112274068875      -0.199110245810007     
  0.706404222589298       0.318820477536558     
  0.269228134134116       0.127065041842404     
 p           4   1.00000000000000     
   5.82636561408000       0.737164515452096     
   1.51068960187200       0.682163716148503     
  0.532564832880000       0.357830539292537     
  0.212023236906000       5.398303027584788E-002
 
          31 0
 s           4   1.00000000000000     
   51.0493630955799      -0.163120632101274     
   8.79112274068875      -0.199110245810007     
  0.706404222589298       0.318820477536558     
  0.269228134134116       0.127065041842404     
 p           4   1.00000000000000     
   5.82636561408000       0.737164515452096     
   1.51068960187200       0.682163716148503     
  0.532564832880000       0.357830539292537     
  0.212023236906000       5.398303027584788E-002
 
          32 0
 s           3   1.00000000000000     
   3.37022769753360       0.273591105889083     
  0.613891182214980       0.264605406538605     
  0.166142911484160       8.246594753408230E-002
 
          33 0
 s           3   1.00000000000000     
   3.37022769753360       0.273591105889083     
  0.613891182214980       0.264605406538605     
  0.166142911484160       8.246594753408230E-002
 
          34 0
 s           3   1.00000000000000     
   3.37022769753360       0.273591105889083     
  0.613891182214980       0.264605406538605     
  0.166142911484160       8.246594753408230E-002
 
          35 0
 s           3   1.00000000000000     
   3.37022769753360       0.273591105889083     
  0.613891182214980       0.264605406538605     
  0.166142911484160       8.246594753408230E-002
 
          36 0
 s           3   1.00000000000000     
   3.37022769753360       0.273591105889083     
  0.613891182214980       0.264605406538605     
  0.166142911484160       8.246594753408230E-002
 
          37 0
 s           3   1.00000000000000     
   3.37022769753360       0.273591105889083     
  0.613891182214980       0.264605406538605     
  0.166142911484160       8.246594753408230E-002
 
          38 0
 s           3   1.00000000000000     
   3.37022769753360       0.273591105889083     
  0.613891182214980       0.264605406538605     
  0.166142911484160       8.246594753408230E-002
 
          39 0
 s           3   1.00000000000000     
   3.37022769753360       0.273591105889083     
  0.613891182214980       0.264605406538605     
  0.166142911484160       8.246594753408230E-002
 
          40 0
 s           3   1.00000000000000     
   3.37022769753360       0.273591105889083     
  0.613891182214980       0.264605406538605     
  0.166142911484160       8.246594753408230E-002
 
          41 0
 s           3   1.00000000000000     
   3.37022769753360       0.273591105889083     
  0.613891182214980       0.264605406538605     
  0.166142911484160       8.246594753408230E-002
 
          42 0
 s           3   1.00000000000000     
   3.37022769753360       0.273591105889083     
  0.613891182214980       0.264605406538605     
  0.166142911484160       8.246594753408230E-002
 
          43 0
 s           3   1.00000000000000     
   3.37022769753360       0.273591105889083     
  0.613891182214980       0.264605406538605     
  0.166142911484160       8.246594753408230E-002
 
          44 0
 s           3   1.00000000000000     
   3.37022769753360       0.273591105889083     
  0.613891182214980       0.264605406538605     
  0.166142911484160       8.246594753408230E-002
 
          45 0
 s           3   1.00000000000000     
   3.37022769753360       0.273591105889083     
  0.613891182214980       0.264605406538605     
  0.166142911484160       8.246594753408230E-002
 
          46 0
 s           3   1.00000000000000     
   3.37022769753360       0.273591105889083     
  0.613891182214980       0.264605406538605     
  0.166142911484160       8.246594753408230E-002
 
          47 0
 s           3   1.00000000000000     
   3.37022769753360       0.273591105889083     
  0.613891182214980       0.264605406538605     
  0.166142911484160       8.246594753408230E-002
 
          48 0
 s           3   1.00000000000000     
   3.37022769753360       0.273591105889083     
  0.613891182214980       0.264605406538605     
  0.166142911484160       8.246594753408230E-002
 
          49 0
 s           3   1.00000000000000     
   3.37022769753360       0.273591105889083     
  0.613891182214980       0.264605406538605     
  0.166142911484160       8.246594753408230E-002
 
          50 0
 s           3   1.00000000000000     
   3.37022769753360       0.273591105889083     
  0.613891182214980       0.264605406538605     
  0.166142911484160       8.246594753408230E-002
 
          51 0
 s           3   1.00000000000000     
   3.37022769753360       0.273591105889083     
  0.613891182214980       0.264605406538605     
  0.166142911484160       8.246594753408230E-002
 
          52 0
 s           3   1.00000000000000     
   3.37022769753360       0.273591105889083     
  0.613891182214980       0.264605406538605     
  0.166142911484160       8.246594753408230E-002
 
          53 0
 s           3   1.00000000000000     
   3.37022769753360       0.273591105889083     
  0.613891182214980       0.264605406538605     
  0.166142911484160       8.246594753408230E-002
 
          54 0
 s           3   1.00000000000000     
   3.37022769753360       0.273591105889083     
  0.613891182214980       0.264605406538605     
  0.166142911484160       8.246594753408230E-002
 
          55 0
 s           3   1.00000000000000     
   3.37022769753360       0.273591105889083     
  0.613891182214980       0.264605406538605     
  0.166142911484160       8.246594753408230E-002
 
[MO]
Sym=     1a
Ene=   -1.01934282914217     
Spin= Alpha
Occup=     2.00000000
           1 -0.575378374143067     
           2 -3.895068828197227E-003
           3 -2.104528531245240E-002
           4 -4.514985574478595E-003
           5 -1.104416950122549E-003
           6  2.144679240759358E-003
           7 -1.040262290636809E-003
           8 -1.299000072689641E-003
           9  1.843943951777375E-004
          10 -2.023207476146607E-003
          11  7.081592607459876E-004
          12 -1.874777970285492E-003
          13  1.166618709539505E-003
          14  1.510989867308051E-004
          15  2.298344823662125E-003
          16 -1.012386835773264E-002
          17  7.685242035632141E-003
          18  2.223498916103387E-002
          19 -0.120331708484689     
          20  5.184776612689351E-003
          21  0.730540330350208     
          22 -4.321555746421540E-003
          23 -3.009494410502119E-002
          24  6.125518381446036E-003
          25  1.467554158864634E-003
          26 -3.223810831327123E-003
          27  1.756256672462489E-003
          28  1.508589068660199E-003
          29  1.888830549498570E-004
          30 -8.856604204683381E-004
          31  5.232606631586015E-004
          32 -1.848579350065001E-003
          33  1.259849496324445E-002
          34 -6.137758750359567E-004
          35 -4.209370224402272E-003
          36  3.229810409945443E-003
          37  9.795598144568295E-004
          38  1.419778827830599E-002
          39  1.318872512451201E-003
          40 -1.739901180274549E-002
          41  4.653662787866903E-003
          42  1.187664727618990E-003
          43 -1.987079415837032E-003
          44  4.333867550754620E-004
          45  1.367801380033407E-003
          46  1.740100155014707E-003
          47 -2.472129115367420E-004
          48  9.540229727135306E-005
          49  2.718754825280357E-004
          50  3.928353105857752E-004
          51 -3.127729703129930E-004
          52 -4.606982821867936E-005
          53  1.046162570466539E-004
          54  1.285846776396942E-004
          55 -1.704457048668120E-004
          56 -3.940209482350736E-005
          57  2.561188925971394E-004
          58  1.581586850952399E-004
          59 -4.543052731604570E-004
          60 -1.707168651294911E-004
          61  1.170568983473955E-003
          62 -4.364485816350074E-004
          63 -1.777536850471381E-003
          64 -7.237493256383820E-004
          65 -4.183989874074888E-003
          66 -2.408465620771199E-003
          67 -1.090930544740757E-003
          68 -9.525612358726197E-004
          69 -1.367992788294040E-003
          70 -1.405736822815300E-003
          71 -1.182417843632809E-004
          72  1.035665264229023E-003
          73 -2.681532512110238E-004
          74 -3.253104169596238E-004
          75 -3.099377015892769E-004
          76  1.884372514567945E-004
          77 -7.750299002799786E-005
          78 -1.061938426623104E-004
          79 -1.452251308002207E-004
          80  8.708707988267525E-006
          81 -8.683439826968054E-005
          82 -1.347883200284590E-004
          83 -2.379138008144331E-004
          84 -1.176109290177703E-004
          85 -2.657968391419742E-004
          86 -3.967665476001252E-004
          87 -1.153261020548023E-003
          88 -1.557843902683158E-003
          89  9.491683776050634E-005
          90  6.200576078540709E-004
          91  1.620064150917509E-003
          92 -1.998636454993490E-004
          93  6.122853447386888E-004
          94 -5.764252976975192E-004
          95  1.150092649329427E-003
          96  1.133567491024755E-003
          97 -1.684964318611546E-002
          98  4.754994647085564E-003
          99  1.026822706249359E-002
         100  4.966354641531055E-003
         101 -4.809009526219531E-003
         102  1.040564313116565E-002
         103 -5.596633604946122E-003
         104 -1.179925311968548E-002
         105  9.547274207141324E-004
         106 -6.434522534596575E-003
         107  1.666407908793724E-003
         108  8.989278368639237E-004
         109 -1.416680908413068E-003
         110  1.918155169992626E-004
         111  8.205243427903575E-004
         112 -5.987088798087137E-004
         113 -2.821553849983809E-004
         114 -6.690264130153977E-004
         115  1.520690898554559E-004
         116 -1.312224031278191E-004
         117 -1.826273518275518E-004
         118 -1.526631932224996E-004
         119  2.463976001020709E-005
         120 -2.064254014596795E-006
         121 -7.953813591790948E-005
         122 -1.359212228203165E-005