86
 energy: -112.921155528064 gnorm: 0.000261161342 xtb: 6.7.1 (edcfbbe)
C           -7.44055363440423        0.35246002520413        1.30075971071187
C           -6.94960240559832        0.37816844892594       -0.15357903556023
C           -7.52829823907766        1.62541185367559       -0.82737760717031
C           -7.47368261442098       -0.85581858980792       -0.90125505689355
C           -5.42919543987990        0.36315728603790       -0.16904689762962
C           -4.66664081312830        1.34101732802272       -0.75022904737818
C           -3.26108963219395        1.28695391866565       -0.71764752078458
C           -2.58252649535993        0.20387133301027       -0.08407911648269
C           -3.38690623339701       -0.83590602668263        0.48780198914621
C           -2.70445690143565       -2.04172514746640        1.11813620912444
C           -1.81499385907007       -1.57583762872278        2.27872169482790
C           -1.85214945668070       -2.73383442883771        0.04595527911838
C           -3.69810066203191       -3.06999155838453        1.66934433275715
C           -4.75211103160101       -0.71503322180444        0.43376397807464
O           -1.29933593059654        0.15872569235055       -0.03312451209973
Co           0.00236521128427        1.35274848357271       -0.48489182218939
N           -1.22937198327842        2.45807855901460       -1.31530565836898
C           -2.51764040552711        2.30914736382456       -1.35515270448707
C           -0.66211007069807        3.51601026973127       -2.13153748596242
C            0.01276486639517        4.60791298618721       -1.28973014183951
C            0.64511473192691        4.03917298191648       -0.01331006065012
N            1.21980861429145        2.72207139027653       -0.21855879362463
C            2.50021961750853        2.60600044911021       -0.03838127509154
C            3.25050506192714        1.40770674931435       -0.09590742283740
C            4.65101021184373        1.47354184047226        0.02528906063460
C            5.42077639610858        0.34153541361331       -0.00013225950042
C            6.93573162478115        0.35018618335701        0.12979458488626
C            7.33802258711982       -0.45863312565303        1.37129384013795
C            7.55621794912203       -0.28015261750601       -1.12478443821985
C            7.50091089046083        1.76524025382672        0.28089893273912
C            4.75571659541168       -0.89219767098717       -0.14261805356950
C            3.39543184557620       -1.02782115765509       -0.25411396053579
C            2.72504164941637       -2.38982716827438       -0.36766892953098
C            1.90780589981508       -2.45324668592765       -1.66513579798948
C            1.80211111332181       -2.57787794599255        0.84352417553387
C            3.72718742462418       -3.54915496435031       -0.38665668803415
C            2.58392574194206        0.15415689356059       -0.23670807567722
O            1.30476148388195        0.08787457136541       -0.33694127467840
H           -7.11744735426669       -0.54895053289244        1.81349574765565
H           -7.05059880331808        1.21104862936999        1.84346314614885
H           -8.52772064984690        0.38893434170816        1.33072398294661
H           -8.61505963632774        1.59404531428855       -0.77898694983717
H           -7.19492815153143        2.53015400485532       -0.32426871834276
H           -7.24023348974626        1.67267805171591       -1.87494026121230
H           -8.56175964787267       -0.85232078477084       -0.91607853736623
H           -7.14300498366460       -1.77588960715679       -0.42785166323019
H           -7.11351657664317       -0.85299210145590       -1.92785813354826
H           -5.11723058650123        2.18859237160626       -1.24267679199499
H           -2.41770272178425       -1.08281723313173        3.03970705356464
H           -1.06132617034293       -0.87927920823526        1.92591397559043
H           -1.31371994048632       -2.42916035024031        2.73071277739231
H           -2.48072803034938       -3.05781027783267       -0.78187554258573
H           -1.09718852470066       -2.05397810070582       -0.33379009754572
H           -1.35659536550144       -3.60530733166193        0.46784964049751
H           -4.33927265216957       -3.46226434267144        0.88272531032984
H           -4.31511203678147       -2.64287016882660        2.45725094084711
H           -3.14462157009944       -3.90450975639657        2.09543699056966
H           -5.35456410649533       -1.49122752141983        0.87384854871420
H           -3.10039123718324        3.01813771932748       -1.94938315225779
H           -1.43461391296432        3.97367284233243       -2.76392154905382
H            0.08639860990613        3.06319745265953       -2.78937818582449
H           -0.71873813342896        5.36395511634679       -1.00046308206114
H            0.77585605295946        5.09163654598758       -1.90123691212033
H           -0.12986115467204        3.94963015204098        0.75469735806005
H            1.40550596602236        4.74122632016836        0.35446688767711
H            3.06962465609733        3.50828497954465        0.20036430052467
H            5.09184421983307        2.45214371644484        0.13425528905398
H            7.02855346823314       -1.49639905311461        1.28626023651149
H            6.87338986505994       -0.03674412305347        2.26002518473898
H            8.41816137015712       -0.43543386911522        1.50122931967529
H            7.23435902328958       -1.30977314486893       -1.25254879936695
H            7.26318453982418        0.28032735114361       -2.01011595307786
H            8.64193907083535       -0.26973232607973       -1.05231344596552
H            7.25844320451065        2.37684444776806       -0.58502092687066
H            8.58479829432551        1.71710419897185        0.36585410102786
H            7.11453359288644        2.24559839562241        1.17678983022891
H            5.36386157981247       -1.78041036675528       -0.15817888024234
H            1.42037888468643       -3.42216890847455       -1.75158474482544
H            2.55830329172738       -2.31299223903626       -2.52686730940613
H            1.14501175102335       -1.68141979437944       -1.67415850401543
H            1.31139802030893       -3.54726455081429        0.79250195996581
H            1.04312604322549       -1.80348323076103        0.86183485282586
H            2.37762588445378       -2.52714949637747        1.76630914987541
H            4.30736246568841       -3.58698137854314        0.53292114101900
H            3.18247091798881       -4.48710416674576       -0.47507237893937
H            4.40314095550132       -3.47487032343594       -1.23608217582778
