67
 energy: -98.897976977537 gnorm: 0.000179759009 xtb: 6.7.1 (edcfbbe)
C            7.60792923431421       -0.75678916950484        0.32414679837719
O            6.61295356981565       -1.36041951556242       -0.46145017948608
C            5.32573497186526       -0.91824400062595       -0.31871906584876
C            4.91291240469634        0.09252000735803        0.50643227913660
C            3.54586898457268        0.43418725213328        0.56394749605296
C            2.57271218153127       -0.26423781376706       -0.21419657912215
C            3.04137970519491       -1.29374646964366       -1.10291803041483
C            2.04594041550500       -2.03623601997689       -1.98102178963887
C            1.31225917463467       -1.02744440266089       -2.87541431091107
C            2.71589519958956       -3.07073815827576       -2.89094614247684
C            1.04641912782556       -2.76792056075358       -1.07667574182730
C            4.37835841503168       -1.58730459035404       -1.12005462338850
O            1.32256074833804        0.02629021976792       -0.13767836601995
Co           0.40195588741608        1.27708650397408        0.79953425403959
N            1.93246454084701        1.95971959889083        1.50453034534321
C            3.14782246865433        1.51398606135545        1.38434354352879
C            1.71944291368071        3.09257386466914        2.38814562367703
C            0.44591643117511        3.78703293453293        1.91922152778794
N           -0.45063296763327        2.74826866588941        1.44311134613745
C           -1.72443982073447        3.00830535807117        1.44702915165283
C           -2.74231749734538        2.11883781650646        1.03444175484441
C           -4.08715685949067        2.53104232429842        1.13616225838563
C           -5.08995528194048        1.66736639499503        0.78773612713035
O           -6.43053514297922        1.93999646720188        0.82436524606743
C           -6.83081408115298        3.22580367614864        1.22183791179291
C           -4.76274229969119        0.36608479534501        0.35541689251850
C           -3.47495692529721       -0.08375829905029        0.24039326865041
C           -3.15735566135068       -1.49487590475315       -0.22985281097615
C           -4.41554143569210       -2.32931204165009       -0.49000669270403
C           -2.36052715180924       -1.40715925504641       -1.53737559335420
C           -2.33166129573879       -2.21136860019549        0.84753115891584
C           -2.39901846841026        0.81613026602128        0.55963963874369
O           -1.17210742662487        0.45177874527985        0.43685064159853
H            7.40563837257682       -0.88046806764389        1.39359643760380
H            8.53647654566297       -1.26694601128944        0.07235922227342
H            7.70903556821608        0.31006116325721        0.09677487187196
H            5.60328115576930        0.64865056358698        1.12212059888420
H            2.02281105037891       -0.51050659744796       -3.51794795024640
H            0.78799304117010       -0.29241925509253       -2.27366580583526
H            0.58781259938989       -1.54285333425561       -3.50205824640560
H            3.21431892429001       -3.84414486601045       -2.31142000456627
H            1.95480510937691       -3.54959940365996       -3.50377231170301
H            3.43670145162355       -2.60199868822169       -3.55697276859407
H            1.56900363999127       -3.47613761621411       -0.43634383232235
H            0.32605134633402       -3.31289238501463       -1.68211301548814
H            0.51400675721640       -2.05838607550607       -0.45314517271837
H            4.77512354397224       -2.35790834893906       -1.75890934641391
H            3.94014781077830        2.02008748564541        1.93985929109273
H            1.58002795427746        2.72161684932343        3.41113902994732
H            2.57734849158405        3.77573014250900        2.38091685855952
H            0.68061275383700        4.46070957816629        1.08577196469325
H           -0.01148909702889        4.37629122287545        2.72315669030567
H           -2.05097406775442        3.98206228919985        1.81809343935551
H           -4.28826232719738        3.52936564550575        1.49375070387694
H           -6.42497002319123        3.99635186808978        0.55739349229191
H           -7.91790947395499        3.23222151650658        1.15827972181997
H           -6.52815481053393        3.44163237621442        2.25232598008119
H           -5.60098352009941       -0.26594907571159        0.11609943238347
H           -5.02109076639801       -1.89620335444163       -1.28257288373608
H           -4.11973223412327       -3.32872787902901       -0.80271596931611
H           -5.01869984229812       -2.42432977428135        0.41001622140287
H           -2.94344409817015       -0.89058018563981       -2.29766774582462
H           -1.43451834840463       -0.86606081919897       -1.37796201478224
H           -2.12595070184448       -2.40574861997945       -1.89830756923602
H           -1.40766865879059       -1.67648646707719        1.04081254970762
H           -2.89936012552748       -2.27447176711658        1.77418861794241
H           -2.08675207983460       -3.21941825966820        0.52041217492226
