3
 energy: -12.760018222336 gnorm: 0.000844712634 xtb: 6.7.1 (edcfbbe)
Cl          -1.80561262261127        0.22227766553840       -0.00000000000000
Co           0.01085672710704       -0.34883438645273        0.00000000000000
Cl           1.79475589550422       -1.01101035138923        0.00000000000000
