[Molden Format]
[Title]
[Atoms] AU
Cl     1    17 -0.34121133438929E+01  0.42004391148756E+00  0.00000000000000E+00
Co     2    27  0.20516240842048E-01 -0.65920145324567E+00  0.00000000000000E+00
Cl     3    17  0.33915971030509E+01 -0.19105326732819E+01  0.00000000000000E+00
[GTO]
           1 0
 s           4   1.00000000000000     
   9.34674866189868      -0.125552785052236     
   2.63274953955161      -0.254029831967196     
  0.472092932487140       0.305184566430756     
  0.232271649766237       8.559661830788402E-002
 p           4   1.00000000000000     
   8.96653868620652      -0.317209215069455     
  0.926601749794952       0.357031126383567     
  0.418792332287928       0.280771537007085     
  0.202453454537036       4.152131922185704E-002
 d           3   1.00000000000000     
   3.20597745654841        2.13231494102881     
   1.00523897559031       0.971375176087545     
  0.391565355448865       0.129419082352652     
 
           2 0
 d           3   1.00000000000000     
   2.83032749122080        1.71448916425323     
  0.887453373088594       0.781034818910538     
  0.345684960408215       0.104059494248144     
 s           4   1.00000000000000     
  0.695111995148816      -6.080424419252015E-002
  0.356584305170521      -9.357916970744833E-002
  0.108935840076917       0.120409217624872     
  6.065357920736102E-002  3.064255297573086E-002
 p           4   1.00000000000000     
   2.51737953400177      -2.727839620888233E-002
  0.729880924002924      -5.782541533360520E-002
  0.127388852406668       6.998682569851342E-002
  6.250867267915186E-002  1.834609940635387E-002
 
           3 0
 s           4   1.00000000000000     
   9.34674866189868      -0.125552785052236     
   2.63274953955161      -0.254029831967196     
  0.472092932487140       0.305184566430756     
  0.232271649766237       8.559661830788402E-002
 p           4   1.00000000000000     
   8.96653868620652      -0.317209215069455     
  0.926601749794952       0.357031126383567     
  0.418792332287928       0.280771537007085     
  0.202453454537036       4.152131922185704E-002
 d           3   1.00000000000000     
   3.20597745654841        2.13231494102881     
   1.00523897559031       0.971375176087545     
  0.391565355448865       0.129419082352652     
 
[MO]
Sym=     1a
Ene=   -1.07211801883456     
Spin= Alpha
Occup=     2.00000000
           1 -0.644658852746179     
           2  1.057703248053347E-002
           3 -3.025557429552786E-003
           4  4.957946246636994E-017
           5  1.702187876186477E-003
           6 -8.190719842288259E-004
           7 -8.831158919576508E-004
           8 -6.013262447989517E-004
           9  3.113148956955131E-017
          10  7.597429634382935E-017
          11  3.312090956692514E-004
          12 -3.824906280830442E-004
          13  5.128153241379280E-005
          14  6.756783337822043E-004
          15 -5.423685133756757E-017
          16  2.824710753596848E-017
          17  5.596213536721511E-004
          18  0.107450129860101     
          19 -3.682994838825480E-002
          20 -1.136831626554512E-017
          21  0.653007547260423     
          22  1.025667447801518E-002
          23 -4.104689261033631E-003
          24 -1.011007857090462E-016
          25 -1.257835717808753E-003
          26  3.765711084238552E-004
          27  8.812646093848979E-004
          28  1.256258472514274E-003
          29 -3.295334898289489E-018
          30 -1.602770392672288E-019
Sym=     2a
Ene=   -1.06317997628390     
Spin= Alpha
Occup=     2.00000000
           1 -0.683673992756647     
           2  2.866913625391792E-003
           3 -1.510375161948073E-003
           4 -1.968395162244508E-017
           5  6.719885352248869E-004
           6 -1.999633592238320E-004
           7 -4.720251760010549E-004
           8 -7.237367931333436E-004
           9 -5.205495375598913E-017
          10 -1.211961619696300E-016
          11  1.364407845095384E-002
          12 -5.546575006257632E-003
          13 -8.097503444696204E-003
          14 -8.593076498135477E-003
          15  7.144415060995147E-017
          16 -3.023457529002100E-017
          17 -8.557423420257791E-002
          18  1.736358693955638E-003
          19  2.960406697136539E-003
          20  1.829604903548736E-017
          21 -0.675607199322360     
          22 -3.085732920773580E-003
          23  5.206811276103529E-004
          24  1.405640191546570E-016
          25  9.330992610802596E-004
          26 -4.737689249706132E-004
          27 -4.593303361096464E-004
          28 -2.902694346893230E-004
          29  1.085957899531926E-018
          30  1.026770296427974E-019
Sym=     3a
Ene=  -0.485871162400763     
Spin= Alpha
Occup=     2.00000000
           1  0.124958010612855     
           2 -0.565577212721271     
           3  0.169468133370916     
           4 -2.676772309860433E-016
           5 -2.427848014407400E-003
           6  9.820898917795072E-004
           7  1.445758122627893E-003
           8  1.547622028967332E-003
           9  3.755721841192260E-016
          10  9.231998975601618E-016
          11 -0.185112934557595     
          12  7.518288631258724E-002
          13  0.109930048245008     
          14  0.116679433026172     
          15  6.756945375854424E-016
          16  8.609980410304171E-016
          17 -0.227422977246448     
          18 -1.384157858033315E-003
          19 -4.168796855920801E-003
          20  1.491897395386387E-016
          21  0.125055269314269     
          22  0.552378392789261     
          23 -0.213558421559605     
          24  1.166565136966269E-015
          25 -2.436591682957197E-003
          26  9.952295976104490E-004
          27  1.441362085346748E-003
          28  1.518855573020463E-003
          29  3.480518653407921E-017
          30 -4.501603209980859E-018
Sym=     4a
Ene=  -0.462295281565875     
Spin= Alpha
Occup=     2.00000000
           1 -3.080058153567039E-003
           2 -0.176055645541897     
           3 -0.596062468593168     
           4 -4.849291919592775E-012
           5  5.510312556139028E-003
           6 -5.613810505745006E-003
           7  1.034979496059778E-004
           8  9.179160300219721E-003
           9  8.282528427752493E-014
          10 -2.683550860811102E-014
          11 -2.247556490469568E-002
          12  2.622229135340380E-002
          13 -3.746726448708124E-003
          14 -6.935971805357116E-003
          15 -1.258283349115293E-013
          16  1.436102781396292E-013
          17  4.836371820532346E-003
          18 -6.359641303101572E-002
          19 -0.185686641284778     
          20 -1.527787720028494E-012
          21 -3.361727111655722E-003
          22 -0.250798397404672     
          23 -0.633899305554335     
          24 -5.288407047865548E-012
          25 -6.049282073729792E-003
          26  5.950735402925258E-003
          27  9.854667080453399E-005
          28 -8.126148609241350E-003
          29 -7.848953625053263E-014
          30  2.816453244129349E-014
Sym=     5a
Ene=  -0.462273118382058     
Spin= Alpha
Occup=     2.00000000
           1  2.416321054978738E-014
           2  1.367610657862761E-012
           3  4.635676846334536E-012
           4 -0.621866245505710     
           5 -4.287723133747173E-014
           6  4.365538847266794E-014
           7 -7.781571351962070E-016
           8 -7.138850056430812E-014
           9  1.067286886246627E-002
          10 -3.457172065403726E-003
          11  1.746730336315109E-013
          12 -2.039652548412318E-013
          13  2.929222120972091E-014
          14  5.414840065130814E-014
          15 -1.730188716454994E-002
          16  1.885322995879321E-002
          17 -3.778428860507781E-014
          18  4.948099562822711E-013
          19  1.444115092918307E-012
          20 -0.196433943974743     
          21  2.601972273575896E-014
          22  1.949829111993562E-012
          23  4.930338099067954E-012
          24 -0.681503295135164     
          25  4.706268525474982E-014
          26 -4.635408219582509E-014
          27 -7.086030589247292E-016
          28  6.348918079085785E-014
          29 -1.006829036058767E-002
          30  3.618534558275344E-003
Sym=     6a
Ene=  -0.460852067717772     
Spin= Alpha
Occup=     2.00000000
           1  3.323607084039906E-003
           2  0.146344631076570     
           3  0.602934629729682     
           4  2.106450456388350E-011
           5  2.186636717843596E-003
           6 -2.240688531362198E-003
           7  5.405181351860211E-005
           8  4.328641375916513E-003
           9  1.645734483890415E-013
          10 -4.664709962190204E-014
          11 -0.233658688090161     
          12  0.233462183940568     
          13  1.965041495930387E-004
          14 -0.348955198061623     
          15 -1.417156421095323E-011
          16  4.832124463330522E-012
          17 -2.802821182800153E-004
          18  4.033562951615422E-003
          19  9.261180569438615E-003
          20  3.386551095535773E-013
          21 -2.971097836404396E-003
          22 -0.229419205344224     
          23 -0.503601783719230     
          24 -1.880873062067440E-011
          25  3.746323911069683E-003
          26 -3.682746557546119E-003
          27 -6.357735352356351E-005
          28  4.402882601783588E-003
          29  1.941279759028719E-013
          30 -7.695495086684301E-014
Sym=     7a
Ene=  -0.460812283138778     
Spin= Alpha
Occup=     2.00000000
           1 -1.125313605143183E-013
           2 -4.976081530249917E-012
           3 -2.048721414519737E-011
           4  0.620293698574041     
           5 -7.413799236068987E-014
           6  7.598780894259184E-014
           7 -1.849816581901976E-015
           8 -1.468101273442012E-013
           9  4.847626304918940E-003
          10 -1.373313887094118E-003
          11  7.934019728501856E-012
          12 -7.927466025081856E-012
          13 -6.553703420001645E-015
          14  1.185023171084110E-011
          15 -0.417309082049578     
          16  0.142292141527790     
          17  9.324512040280278E-015
          18 -1.379701565435120E-013
          19 -3.183656742043582E-013
          20  9.972881634116757E-003
          21  1.006437280812627E-013
          22  7.784193643479799E-012
          23  1.708925744739642E-011
          24 -0.553853480636580     
          25 -1.273966605241642E-013
          26  1.252276065293107E-013
          27  2.169053994853493E-015
          28 -1.496687940272738E-013
          29  5.718153749855806E-003
          30 -2.265561338812413E-003
Sym=     8a
Ene=  -0.448991414425171     
Spin= Alpha
Occup=     2.00000000
           1 -5.782067100518281E-002
           2  0.671334176290033     
           3 -0.161176533311622     
           4  8.741899366350295E-016
           5  1.030137444926499E-003
           6 -4.772058782842350E-004
           7 -5.529315666422639E-004
           8 -3.909949206170137E-004
           9  9.292370630099119E-017
          10  2.052469675504076E-016
          11 -1.494191133140874E-003
          12  1.437737650189725E-003
          13  5.645348295114952E-005
          14 -2.034654675604728E-003
          15 -1.211923366016291E-015
          16  5.820384365823949E-016
          17  5.031314622212314E-004
          18 -8.328196494496003E-002
          19  2.859942775042625E-002
          20 -3.059610122932171E-016
          21  5.745791646320641E-002
          22  0.627831648371279     
          23 -0.283306256297866     
          24 -2.831131083169214E-015
          25 -7.720027713046025E-004
          26  2.287387292323162E-004
          27  5.432640420722863E-004
          28  7.400924189274579E-004
          29  3.238466906451093E-017
          30 -1.034541278150187E-017
Sym=     9a
Ene=  -0.406932023498026     
Spin= Alpha
Occup=     2.00000000
           1 -1.272872362152916E-016
           2  5.554804259084172E-016
           3 -2.773928101758986E-016
           4  9.884595028079854E-003
           5  1.410791700680860E-016
           6 -1.216807500281725E-016
           7 -1.939842003991351E-017
           8  1.635017385126099E-016
           9  8.139045425827284E-004
          10  5.698987887938933E-003
          11 -3.680223130208866E-016
          12  3.032037241352197E-016
          13  6.481858888566689E-017
          14 -1.149282371702620E-016
          15  0.323961854994486     
          16  0.945630266560997     
          17  4.219155935359609E-016
          18 -5.007565267833034E-017
          19 -1.810002361981375E-016
          20  4.369371452372812E-003
          21 -1.597176499431741E-016
          22 -7.323238411468015E-016
          23  3.211439046984821E-016
          24  9.861175052421780E-003
          25  9.004356868634079E-017
          26 -8.787700402030585E-017
          27 -2.166564666034947E-018
          28 -2.866856893301696E-018
          29  2.862834479107735E-003
          30  5.027253387584277E-003
Sym=    10a
Ene=  -0.406932022928196     
Spin= Alpha
Occup=     2.00000000
           1  4.374165280981045E-005
           2  2.725302832151499E-003
           3  9.497614234642803E-003
           4 -1.284131460474704E-017
           5 -2.313398587856337E-006
           6  4.931888189084444E-003
           7 -4.929574790496587E-003
           8  8.509524358663623E-004
           9 -1.424944755947081E-018
          10  4.650450047026078E-020
          11  9.106600759432935E-002
          12  0.774680787872065     
          13 -0.865746795466395     
          14  0.306388827691007     
          15  1.435050985268495E-017
          16 -6.518403220399550E-017
          17 -1.948242743938902E-004
          18  1.415222931552662E-003
          19  4.130606385673008E-003
          20 -1.103578326081489E-017
          21  4.366822135180997E-005
          22  3.661073826602065E-003
          23  9.152472695225485E-003
          24 -5.291841206919061E-017
          25  1.142704935025558E-003
          26  3.811583010829993E-003
          27 -4.954287945855550E-003
          28  2.559140805414431E-003
          29  2.312255695879993E-018
          30 -1.213306358476479E-020
Sym=    11a
Ene=  -0.394552612010912     
Spin= Alpha
Occup=     1.99915104
           1 -2.498198284546847E-002
           2  0.157201319244377     
           3 -3.524789203351418E-002
           4 -3.185235104301127E-017
           5 -2.538962204826889E-002
           6  1.117279431602832E-002
           7  1.421682773224058E-002
           8  1.278878256085480E-002
           9  3.482323306224542E-017
          10  7.054451962648856E-017
          11 -0.770556169838199     
          12  0.313274335595932     
          13  0.457281834242267     
          14  0.485686555046944     
          15 -1.231549821686328E-016
          16 -4.871044339352006E-016
          17  0.391847820476560     
          18  2.188942860890169E-003
          19  6.068814768612991E-003
          20 -3.593633491351261E-018
          21 -2.497684295093919E-002
          22 -0.146497253651626     
          23  6.884446268391327E-002
          24  1.108858726298377E-016
          25 -2.243203340322412E-002
          26  8.176920162967031E-003
          27  1.425511324025709E-002
          28  1.732468435665993E-002
          29 -2.670409174852954E-018
          30 -2.909636663648312E-019
Sym=    12a
Ene=  -0.380491179857637     
Spin= Alpha
Occup=     0.50931220
           1 -2.919259525991769E-017
           2  2.264228023099112E-016
           3  4.061912099981693E-016
           4 -0.407363178885048     
           5  6.041529867603123E-018
           6 -1.836555617297125E-017
           7  1.232402630536813E-017
           8  6.856946192038657E-018
           9  3.156820733549663E-002
          10 -9.851760077839781E-003
          11  5.499151612862973E-016
          12 -4.949780314202344E-016
          13 -5.493712986606295E-017
          14  7.642121223575815E-016
          15 -0.851410188706186     
          16  0.291689236218178     
          17  3.063478728744840E-017
          18 -1.221091869878300E-017
          19 -5.280028347534330E-017
          20  1.980360150931398E-004
          21 -2.823513702546998E-017
          22 -2.472167826931913E-016
          23 -4.201083079027949E-016
          24  0.407541497962219     
          25 -4.201648274864388E-019
          26  1.536298969919578E-017
          27 -1.494282487170934E-017
          28 -2.192033546199361E-016
          29  3.112502744790456E-002
          30 -1.162797491330341E-002
Sym=    13a
Ene=  -0.380423737450514     
Spin= Alpha
Occup=     0.49153676
           1  5.080595924923127E-004
           2 -9.829524511977979E-002
           3 -0.395535204558251     
           4 -4.847194926201404E-016
           5  1.497167990985655E-002
           6 -1.573100092860005E-002
           7  7.593210187435053E-004
           8  2.794751769681457E-002
           9  1.294986053084924E-016
          10  7.319425500213801E-017
          11 -0.477863064537835     
          12  0.477894578643573     
          13 -3.151410573830844E-005
          14 -0.710899188203682     
          15 -9.620078921508654E-016
          16 -1.560393508891223E-016
          17 -7.656074311706885E-006
          18 -7.697102784366790E-003
          19  2.845785163412027E-003
          20 -6.058477632544518E-017
          21 -5.084057594364675E-004
          22  0.164936077366860     
          23  0.372895810738219     
          24  5.862313228950645E-016
          25  2.010911072623284E-002
          26 -1.934792302647253E-002
          27 -7.611876997603049E-004
          28  2.422185330248403E-002
          29  8.358017260210074E-017
          30 -1.831905773462042E-019
Sym=    14a
Ene=  -1.339914280068777E-002
Spin= Alpha
Occup=     0.00000000
           1 -3.258075779749868E-002
           2 -0.111112996902252     
           3 -0.205763937762392     
           4  7.165393639952850E-017
           5  0.323897635399033     
           6 -0.270021747878411     
           7 -5.387588752062215E-002
           8  0.325752916390224     
           9  5.706156025643406E-016
          10  1.518985459650535E-015
          11  1.001219820147075E-002
          12 -2.545785590654047E-003
          13 -7.466412610816700E-003
          14 -6.012125209260750E-003
          15  7.636551055673171E-017
          16 -8.639338151838641E-017
          17  0.111280374089586     
          18  0.211668979176869     
          19  0.618069121176706     
          20 -2.822051470589800E-016
          21 -3.256619404942548E-002
          22 -3.846341881062108E-002
          23 -0.230806613608570     
          24  1.844471442545664E-016
          25 -0.173140799594525     
          26  0.227245683031126     
          27 -5.410488343660098E-002
          28 -0.414424319345754     
          29  9.768849248538196E-016
          30 -1.109230103661246E-021
Sym=    15a
Ene=  -1.243825848278624E-002
Spin= Alpha
Occup=     0.00000000
           1 -5.016790502879640E-018
           2  1.995924899620463E-017
           3 -7.556222049758188E-017
           4 -0.228356154625766     
           5  5.187209280808178E-016
           6 -5.141454804357493E-016
           7 -4.575447645068456E-018
           8  5.677098007303411E-016
           9  0.460102367942963     
          10 -0.145372195775216     
          11  4.298375195289719E-017
          12 -1.673756857001973E-017
          13 -2.624618338287746E-017
          14  8.827217107090299E-017
          15  3.138203118642279E-004
          16  1.919889747537535E-003
          17  1.045955942622652E-017
          18  5.997172440683973E-017
          19  1.966979832952855E-016
          20  0.650074997724548     
          21  1.881128766594529E-018
          22 -2.585690669551486E-017
          23 -8.960333834773870E-017
          24 -0.228496740507565     
          25 -2.747690459486348E-016
          26 -4.618447212002389E-016
          27  7.366137671488737E-016
          28 -4.729452407684310E-016
          29 -0.454069284016434     
          30  0.167801222490396     
Sym=    16a
Ene=   4.918906436228400E-003
Spin= Alpha
Occup=     0.00000000
           1 -0.128989762533271     
           2 -0.131139604740556     
           3  5.408059274884228E-002
           4  9.239013125786575E-017
           5  0.476571419247775     
           6 -0.160660346576726     
           7 -0.315911072671049     
           8 -0.437572018160480     
           9  6.712948359262672E-015
          10  1.777206689721626E-014
          11 -3.183091667109393E-002
          12  1.211370645882739E-002
          13  1.971721021226654E-002
          14  1.989022132382697E-002
          15  2.705513249952828E-017
          16 -7.416246492641605E-016
          17  0.368088029859354     
          18 -1.087338257169575E-002
          19 -3.136890021528665E-002
          20 -2.719870144449363E-019
          21 -0.128960046063380     
          22  0.136616990166308     
          23 -3.767539791965991E-002
          24 -1.000092414472087E-016
          25  0.613137206315861     
          26 -0.291778172228892     
          27 -0.321359034086969     
          28 -0.254103668174937     
          29  8.231780491896492E-016
          30 -1.368555014089142E-019
Sym=    17a
Ene=   8.808114201503115E-003
Spin= Alpha
Occup=     0.00000000
           1  5.619025529188226E-005
           2 -4.835894605181946E-006
           3 -2.353828792636087E-004
           4  1.556947725338516E-016
           5  4.629830499816952E-002
           6  0.519389265884755     
           7 -0.565687570882924     
           8  0.185107230231176     
           9  8.372979753931828E-016
          10  1.931980151628243E-015
          11  1.991058747218391E-004
          12  2.741270030969252E-003
          13 -2.940375905691091E-003
          14  8.382707654064534E-004
          15  8.100957572712223E-017
          16 -1.799355100322378E-016
          17 -1.427419931633520E-004
          18  8.235900620028615E-005
          19  1.805674875365803E-004
          20 -5.369131178435134E-016
          21  4.750270589817889E-005
          22  9.248964135049895E-006
          23  1.451240245682044E-004
          24  1.073162527842377E-016
          25 -7.969384667837852E-002
          26 -0.573597650715540     
          27  0.653291497393918     
          28 -0.251074853491810     
          29  6.837334096542360E-016
          30 -1.320928536136035E-020
Sym=    18a
Ene=   8.808132305497878E-003
Spin= Alpha
Occup=     0.00000000
           1  1.503199773052181E-015
           2  2.645817683650592E-015
           3  1.596334666343207E-015
           4 -2.265270213298743E-004
           5  1.158589835360709E-014
           6 -8.371046976512358E-015
           7 -3.214851377094736E-015
           8  7.949115268255674E-015
           9  0.192187983578529     
          10  0.626038098414050     
          11  1.580532625028154E-015
          12 -1.424882719068553E-015
          13 -1.556499059596016E-016
          14  1.772026093352815E-015
          15  8.698533652373658E-004
          16  3.278227490045341E-003
          17 -4.473299124110063E-015
          18 -1.886737908879421E-015
          19 -5.523119189769340E-015
          20  1.984244126993532E-004
          21  1.414120782216554E-015
          22 -1.486744752269290E-015
          23  2.239847206017436E-015
          24  1.398585124871424E-004
          25 -1.472164235697446E-014
          26  6.090388179904592E-015
          27  8.631254177069865E-015
          28  1.410686404648271E-014
          29 -0.266765811351599     
          30 -0.707099887177915     
Sym=    19a
Ene=   9.701985499527825E-003
Spin= Alpha
Occup=     0.00000000
           1 -1.799107097674016E-015
           2 -3.237717460836504E-015
           3 -2.127566424658133E-015
           4 -6.679315440441644E-004
           5 -1.356063546340428E-014
           6  9.737062515429051E-015
           7  3.823572947975230E-015
           8 -9.195392476816497E-015
           9 -0.229062563598876     
          10 -0.720664941751327     
          11 -1.762399231036093E-015
          12  1.612898574606016E-015
          13  1.495006564300772E-016
          14 -2.014521646790821E-015
          15  1.492792460803425E-002
          16  4.350079326731859E-002
          17  5.390513852397302E-015
          18  2.514855315399276E-015
          19  7.303572196472552E-015
          20  2.962723274893074E-003
          21 -1.708923377022972E-015
          22  1.760904418055757E-015
          23 -2.915145189210815E-015
          24 -6.965463541051335E-004
          25  1.773391146471218E-014
          26 -7.874086298663774E-015
          27 -9.859825166048402E-015
          28 -1.650670345668561E-014
          29 -0.225264715334678     
          30 -0.615462961699268     
Sym=    20a
Ene=   9.702071336770460E-003
Spin= Alpha
Occup=     0.00000000
           1  5.509257926511605E-004
           2  3.354305126417926E-004
           3 -7.962851553249837E-004
           4  2.803099777310202E-016
           5 -6.143647973898624E-002
           6 -0.594385905372654     
           7  0.655822385111640     
           8 -0.216855084469613     
           9  8.492132068567228E-016
          10  2.090289663772195E-015
          11  4.418043421375926E-003
          12  3.554682134254816E-002
          13 -3.996486476392408E-002
          14  1.398068793385764E-002
          15  1.107952389936797E-016
          16 -1.705507097262487E-016
          17 -1.504599156309360E-003
          18  9.424820603195378E-004
          19  2.768961464517649E-003
          20 -4.236311496940734E-016
          21  5.550741137511528E-004
          22 -7.672996080514654E-004
          23 -4.481964453541503E-004
          24  1.862356803208212E-016
          25 -7.025781431493464E-002
          26 -0.499109074324477     
          27  0.569366888639412     
          28 -0.209937109759753     
          29  6.517134062317070E-016
          30 -9.835028454240871E-021
Sym=    21a
Ene=   1.019024598145394E-002
Spin= Alpha
Occup=     0.00000000
           1  3.169535744913579E-003
           2  2.992229498876217E-003
           3 -8.151599672787007E-004
           4  6.600451920852137E-018
           5 -0.632255367213456     
           6  0.273515240337968     
           7  0.358740126875488     
           8  0.324139588890380     
           9  9.718300930849808E-015
          10  2.753290420681698E-014
          11  2.184251430852966E-005
          12  5.209822419145463E-005
          13 -7.394073849998430E-005
          14 -7.004827247678218E-005
          15 -2.144454926081028E-017
          16 -1.053751390895727E-015
          17 -2.946395188914065E-003
          18  5.296926263697828E-003
          19 -1.970384320885935E-003
          20  2.565548332174179E-016
          21 -1.048878387971574E-003
          22  6.454611131693514E-004
          23 -2.672913286252674E-004
          24 -1.873593795048903E-016
          25  0.554175634973974     
          26 -0.201484568542899     
          27 -0.352691066431076     
          28 -0.422585308997370     
          29  1.151753612766175E-015
          30 -7.315146100690569E-023
Sym=    22a
Ene=   3.248181594381753E-002
Spin= Alpha
Occup=     0.00000000
           1 -1.626368970103197E-016
           2 -6.513235709407552E-016
           3 -1.105969545414731E-015
           4 -3.528516659569698E-002
           5 -1.053024564681511E-015
           6  7.392872808346119E-016
           7  3.137372838468987E-016
           8 -5.188287764801524E-016
           9 -0.688093986256471     
          10  0.211833200375468     
          11  3.180050985506173E-016
          12 -2.539309986869279E-016
          13 -6.407409986368940E-017
          14  2.470999034712998E-016
          15 -0.224582124564092     
          16  7.693321704187665E-002
          17  5.499152130627669E-016
          18  1.275039780162804E-015
          19  3.715280597606699E-015
          20 -6.872889143637687E-005
          21 -1.532802413470678E-016
          22 -1.918014803593030E-016
          23 -1.386327802241856E-015
          24  3.545866531551957E-002
          25  3.119197632366916E-015
          26 -3.002214194734285E-015
          27 -1.169834376326303E-016
          28  1.276545734681812E-015
          29 -0.671678356083675     
          30  0.253895768550549     
Sym=    23a
Ene=   3.249238245419873E-002
Spin= Alpha
Occup=     0.00000000
           1  1.059950911525970E-004
           2  8.438293452910993E-003
           3  3.434958526865061E-002
           4  7.602026908227662E-016
           5  0.326294319985898     
           6 -0.340160687629959     
           7  1.386636764406075E-002
           8  0.608393720611030     
           9 -2.680504207480413E-015
          10 -1.530919533335340E-014
          11  0.126113503734907     
          12 -0.126114504162763     
          13  1.000427855376433E-006
          14  0.187612354632578     
          15  6.572614878013237E-016
          16  2.319510715723650E-016
          17 -2.432176581876215E-005
          18  2.740599513041625E-003
          19 -8.883227361946016E-004
          20 -1.954339194114083E-015
          21 -8.433733790354612E-005
          22 -1.447607925625091E-002
          23 -3.244907969370669E-002
          24  5.930718559708241E-016
          25  0.433495051028585     
          26 -0.419675067420160     
          27 -1.381998360842556E-002
          28  0.522282776780555     
          29  2.810157219695925E-016
          30 -3.840655467985038E-019
Sym=    24a
Ene=   4.486049044519880E-002
Spin= Alpha
Occup=     0.00000000
           1 -1.313398475053921E-017
           2  2.508841301556785E-016
           3  6.354783957155195E-016
           4  0.270393879335722     
           5  1.590837846562029E-016
           6 -1.588117314836069E-016
           7 -2.720531725959385E-019
           8 -1.900398966111403E-017
           9  0.502199274916787     