61
 energy: -96.943083717079 gnorm: 0.000817152342 xtb: 6.7.1 (edcfbbe)
C            4.12319090551784        2.16142044625292       -0.69116742685713
C            3.74134295109171        1.00929550410578       -1.35644636144767
C            2.49020831162785        0.45329609342868       -1.10057881427572
C            1.98436682419929       -0.76000217022265       -1.74125137793369
C            2.67975757100214       -1.47945226680159       -2.71002074649650
C            2.10384399216809       -2.60992339757998       -3.26300036050331
C            0.84084200782349       -2.98527944884119       -2.83121768514254
C            0.21080658738599       -2.22158287695557       -1.86298892076930
N            0.75945816938838       -1.13633314501642       -1.32078955977328
Co          -0.00448434399786        0.01723930445020       -0.00173116895360
N            1.63449159080978        1.00785494076553       -0.21853513464468
C            2.01031765174982        2.11527160535099        0.41719784075461
C            3.23754976724239        2.72456440434242        0.21488726043048
N           -0.81238729972814        1.28580572833517        1.21160855405510
C           -0.84280765293246        1.13841612781160        2.53506410182364
C           -1.58245963401194        1.95482532448613        3.37162878926192
C           -2.34281286217846        2.97045297487873        2.80960851139938
C           -2.30495695328187        3.14034839256522        1.43741637198936
C           -1.51912052146001        2.29279380791699        0.65832549403758
C           -1.41125092760802        2.43612428497136       -0.79835737400168
C           -1.74750019264762        3.60310418573243       -1.48289560853485
C           -1.62064355220627        3.63567863899672       -2.86126072178257
C           -1.15645813790682        2.50517671903443       -3.51918025758643
C           -0.82334325271464        1.39237316829008       -2.76482679437582
N           -0.94534813077935        1.35519973157477       -1.44442206344909
N           -1.57751596798813       -1.10220065999833        0.33546173199901
C           -2.79641395800400       -0.84873720438167       -0.13794439460450
C           -3.92948710784536       -1.51668067530608        0.29015789451530
C           -3.79900255566791       -2.48838511170040        1.27242193777164
C           -2.53480769235174       -2.76979298383364        1.75765981273595
C           -1.43531524132981       -2.07239285622381        1.26027444463580
C           -0.06540123674825       -2.34516099870904        1.70895882613568
C            0.32161891373746       -3.55453503800649        2.28323535042431
C            1.63638841523132       -3.71859537260386        2.68453139160057
C            2.52880166106416       -2.67199240697327        2.49841962907452
C            2.07058852646928       -1.51104884907154        1.89819102223479
N            0.81189939765994       -1.34818166195857        1.51042219141410
H            5.08813917081211        2.60711881371139       -0.87374601401014
H            4.41175000593924        0.54927526821880       -2.06275481857244
H            3.65689961939826       -1.16138313698572       -3.03247007375054
H            2.62573313221030       -3.18107264888599       -4.01424314051099
H            0.34775252231427       -3.85385948280116       -3.23595502171568
H           -0.77504370147461       -2.50046058025698       -1.52063572310710
H            1.31286023625813        2.54205255748061        1.12319255629696
H            3.48985173101662        3.61976280889661        0.75937081518811
H           -0.24125039465356        0.33967437440727        2.94534706467078
H           -1.56385839778169        1.79474767922251        4.43701877501047
H           -2.94693909053048        3.61621684054286        3.42647915621039
H           -2.89152745625891        3.91517865497834        0.97250327642073
H           -2.08917421176993        4.47567816341760       -0.95160859371648
H           -1.88115892162266        4.52494010828220       -3.41290684603182
H           -1.05861255452737        2.48451995305163       -4.59205295785500
H           -0.46217761407390        0.49106582067366       -3.24115754759248
H           -2.86937596930537       -0.08750181117294       -0.90161544589724
H           -4.89038754211856       -1.27757582890531       -0.13484858318776
H           -4.66132723599543       -3.01614328278746        1.64712439272581
H           -2.40184185852852       -3.51197555653228        2.52725237154268
H           -0.38579234063597       -4.35881007918521        2.39949681230504
H            1.95939758835860       -4.64458781366591        3.13437294398313
H            3.55619720236306       -2.75251702596137        2.81362810233209
H            2.73593005783121       -0.67330805483877        1.73935211412226
