47
 energy: -78.281517763930 gnorm: 0.000240073528 xtb: 6.7.1 (edcfbbe)
C           -0.88924340724382       -2.62297569551536        1.85323988485972
N            0.16872041131455       -2.24149409484646        1.20855384366016
Co           0.46220090180190       -0.67234807152250        0.30504352117578
N            2.00948622137141       -1.43317236986021       -0.31464090796259
C            2.92625558421384       -0.90186452212322       -1.06287817080934
C            2.94891308036458        0.45632296702038       -1.47547491971147
C            3.97276464213370        0.93051163694367       -2.28504664866562
C            4.02526865086868        2.26110534634709       -2.70116387576807
C            5.05281818022224        2.75034399129264       -3.54167265352837
C            5.07389776002067        4.05638502909949       -3.93210582846150
C            4.06721579399913        4.94200662850207       -3.49857590903272
C            3.06200937597569        4.50657343191541       -2.68740224039365
C            3.00207475817040        3.15670359452682       -2.26113080272127
C            1.98201454513288        2.68703209138788       -1.43547473031067
C            1.90571103461927        1.35083587648840       -1.03038332001685
O            0.94531645843904        0.95287571821876       -0.27058861142906
C            2.13558330534111       -2.84944681539297       -0.01385400508829
C            1.33026286940886       -3.11274630631817        1.25306597956573
O           -1.21984284939193       -0.11899593901048        0.58269499071414
C           -2.19905671444586       -0.61115802831758        1.25869972575869
C           -3.41600472625902        0.07248307786997        1.34238326398456
C           -4.50968375930301       -0.43837521681261        2.03909171653137
C           -5.74088460870264        0.25819616511975        2.11951859908977
C           -6.80177620084223       -0.26832285690701        2.79418930235227
C           -6.69667880787095       -1.52075647169044        3.43157908336815
C           -5.52718977033487       -2.21954160868765        3.38162597353724
C           -4.40452541021136       -1.70624152182421        2.69025927767146
C           -3.19465215531728       -2.39695597647381        2.61596600402802
C           -2.10104536128989       -1.88665185141238        1.92886068470512
H           -0.86836479075085       -3.58240603400156        2.37418142639743
H            3.75127714307998       -1.52947951210037       -1.40559540751462
H            4.74911954599289        0.24885428050106       -2.60770795994037
H            5.82077201551376        2.06373355643868       -3.86974195193666
H            5.85960723054222        4.42383430711278       -4.57577318040713
H            4.10178891072391        5.97331225764495       -3.81892111442281
H            2.28918107814249        5.18421512937585       -2.35471468436481
H            1.20478355158296        3.35888343971378       -1.10371242903766
H            1.70937637052424       -3.42357385556819       -0.84580294770096
H            3.18503415797070       -3.14223931040533        0.10803033703797
H            1.04078254787406       -4.16729193930524        1.33439247651004
H            1.93119771053117       -2.84865734320971        2.13174406937709
H           -3.49055692491178        1.02974647684374        0.84878098326352
H           -5.81989795371716        1.21791186836413        1.62972527596134
H           -7.73682865007565        0.27051224149768        2.84666654319784
H           -7.55155982858194       -1.91882213585404        3.95826987078132
H           -5.43733370827145       -3.18066872798774        3.86842362997891
H           -3.10830821249161       -3.35819290620087        3.10598617840374
