83
 energy: -109.765224719643 gnorm: 0.000234632467 xtb: 6.7.1 (edcfbbe)
C            7.57389510678030        0.25423641736889        1.12683878306460
C            6.96231315684079        0.09914324614733       -0.26821568868824
C            7.42276201586886        1.28809878349050       -1.12335027812749
C            7.48734114928539       -1.20978462764656       -0.87544260117512
C            5.44079693784599        0.05681302102185       -0.24837853023816
C            4.74027175613542       -0.06255437141094       -1.42260180393412
C            3.33724896730386       -0.11291673416661       -1.44046792532502
C            2.58670963403339       -0.04733571406328       -0.22657778848916
C            3.32412943150577        0.07470252869653        0.99457109558059
C            2.57108678820057        0.14841610698889        2.31562045553848
C            1.62784722568329        1.35759472439573        2.28293361591184
C            3.49592498928054        0.30526610389406        3.52759776144762
C            1.76852393426740       -1.14680690516618        2.49954569660759
C            4.69687996691371        0.12466837734548        0.94123155988524
O            1.30134902345793       -0.11871206592027       -0.23247896792163
Co           0.07579072210455       -0.27044055229261       -1.55573030698835
N            1.38296410081527       -0.36270128322320       -2.82971685398580
C            2.66794322717139       -0.26472009603477       -2.67789819615458
C            0.87456071712735       -0.50183268267840       -4.18262087846332
C           -0.45569830839108       -1.23896061980904       -4.08438653530183
N           -1.09224904785956       -0.80443685399615       -2.85318649338244
C           -2.38299426009384       -0.92495739189203       -2.77348101237596
C           -3.17273499042036       -0.56340215208282       -1.65782679599738
C           -4.56707052014231       -0.74354264018143       -1.72280522938395
C           -5.37853853680415       -0.39074940517441       -0.67828311140803
C           -6.88502754905452       -0.59546020224723       -0.67451439420029
C           -7.39358651710601       -1.21195249569921       -1.98054317466831
C           -7.58478285013713        0.75701381962460       -0.48157935129038
C           -7.25488921106556       -1.54171163295003        0.47659774037121
C           -4.76582297593391        0.18673145663637        0.45091719505022
C           -3.41664959219916        0.40152480551599        0.57375785006385
C           -2.81318698725235        1.03390151051979        1.81982976204010
C           -2.05174839352881        2.30435827461847        1.41778092661467
C           -3.86527464512807        1.42864815257774        2.86199913566238
C           -1.85646127496053        0.02562670244988        2.46745228704906
C           -2.55487244697568       -0.00353736750770       -0.49847449776893
O           -1.27910013515889        0.14703532940174       -0.42854571399163
H            8.65877719158831        0.28449286445398        1.04442145051189
H            7.31081551336561       -0.58510798808778        1.76626912222262
H            7.24781558845738        1.17911195825736        1.59678861124421
H            7.03450541186599        2.21778481199855       -0.71297256627661
H            8.50948227268852        1.34309657789058       -1.13724169571577
H            7.07395218329231        1.19709968570247       -2.14814344180871
H            8.57547004871965       -1.21047982941528       -0.88702516963969
H            7.14703786111150       -2.05910073238366       -0.28672892946055
H            7.13533265899158       -1.34045221907107       -1.89497516048300
H            5.25352404289733       -0.12423130908130       -2.37171638915538
H            1.08155728692811        1.43113664969673        3.22047010012194
H            2.19769374504148        2.27417264351047        2.14023444179568
H            0.91514697936812        1.25909876297003        1.47178599108726
H            2.88982150903620        0.35437724991255        4.43011925738258
H            4.07775857492880        1.22244044067254        3.46620620759208
H            4.17036495440419       -0.54260249588663        3.62624319196606
H            1.19940921022280       -1.10764779781535        3.42573401921613
H            1.07814444461960       -1.28714841487529        1.67436940153586
H            2.44130165218001       -2.00188649292904        2.54018352590726
H            5.23686580139672        0.21928340738899        1.86526125245408
H            3.29956174617334       -0.31450900798274       -3.56769328221534
H            0.70957429328671        0.49914970047546       -4.60008025972812
H            1.58413194805241       -1.03403545254003       -4.82784694922254
H           -0.27346674224003       -2.31927762902157       -4.02486942124368
H           -1.09074888765069       -1.04231359368397       -4.95657394455839
H           -2.91868654005818       -1.32447300830663       -3.63734084978501
H           -4.96696166927677       -1.17539773958073       -2.62684580006250
H           -6.95014856838487       -2.19056557708360       -2.14864952405290
H           -7.17011828876660       -0.56837546339308       -2.82825531616834
H           -8.47335841192014       -1.33673864791718       -1.92791323274581
H           -8.66488221215093        0.62665609347503       -0.50299509469540
H           -7.30311242159168        1.44214723559702       -1.27842297424587
H           -7.31748375620189        1.21148886444113        0.46807185553888
H           -6.74692190258946       -2.49612748700161        0.35464671070007
H           -6.96891279024355       -1.12563690490254        1.43850929738563
H           -8.32832800094561       -1.71969217981994        0.48744487001232
H           -5.40757740117515        0.47493404673779        1.26570938673148
H           -1.59950399212025        2.76305202085692        2.29440921671136
H           -2.73265416897851        3.02138018658506        0.96212008988358
H           -1.26653625725971        2.06978639331231        0.70679614948880
H           -4.56995122693121        2.15330812895025        2.45929552696254
H           -3.36529786726176        1.88738703359228        3.71283162423164
H           -4.41005512555177        0.55992781936323        3.22555869524896
H           -1.41384660513443        0.45220452748960        3.36466941179657
H           -1.06261899684698       -0.23486481326548        1.77654105266562
H           -2.39452369380711       -0.88011588583949        2.74203180518892
