39
 energy: -80.026559507139 gnorm: 0.000745478878 xtb: 6.7.1 (edcfbbe)
O            4.97540828537876        5.70118336529848        1.11790934964227
N            3.86547011031054        5.64357637330647        0.62621492549812
O            3.28255091983221        6.59133398283515        0.13231523239510
C            3.20060492253456        4.37882803758186        0.62230833295157
C            3.84069645164325        3.25325886400310        1.17348729714596
C            3.21876414251892        2.04045459386878        1.16198826078189
C            1.91928610072508        1.87907627925855        0.60351008448156
C            1.27799955160867        3.04360707618363        0.05808402466016
C            1.93848679128612        4.27281494074386        0.07481425385426
C           -0.01851580115588        2.92817235064079       -0.51217079489942
N           -0.68748122252558        1.82353346323040       -0.59981730559539
Co          -0.21989640687052        0.14245422279751       -0.00473888322774
N           -1.67415840063833       -0.47869227255034       -0.94864411403284
C           -2.12842703311200       -1.68984701896109       -1.01655588784227
C           -1.61567486418220       -2.78821489745579       -0.27560302213544
C           -2.16926968772201       -4.06113363125998       -0.42124822029166
C           -1.67507641385379       -5.12388038102474        0.30670809268477
N           -2.24166114576925       -6.42408210193879        0.13252071844623
O           -3.15290173716457       -6.54199601142938       -0.66541185628772
O           -1.78173362338003       -7.33752470204939        0.78922216436222
C           -0.61883655879432       -4.94030609271740        1.21824440713557
C           -0.06774293437088       -3.70474263108065        1.38452134523190
C           -0.52826264766741       -2.58143050363275        0.64089400287862
O            0.00733700621923       -1.43729636383192        0.81175373525441
C           -2.30050828025679        0.51997681922968       -1.80078499311425
C           -2.01833821130705        1.88349659353600       -1.18111133646897
O            1.37171527605415        0.72804767266814        0.57806332250385
H            4.82586861624788        3.37875083301969        1.59656789501572
H            3.69068299701096        1.16446495959846        1.57789751137516
H            1.46977561189769        5.15398796744688       -0.33925844353166
H           -0.46076733761946        3.84563396687731       -0.90181334176740
H           -2.96746457909410       -1.90211174120774       -1.67969979017752
H           -2.98458203486862       -4.23007928017830       -1.10984719532128
H           -0.26417711676352       -5.79612705121460        1.77242666753371
H            0.74452051329747       -3.54130244992976        2.07483573479102
H           -3.37598233920072        0.34065356672063       -1.90415977320023
H           -1.84119123624239        0.46543624066937       -2.79479074981484
H           -2.73742287070979        2.07783251899551       -0.37676677690910
H           -2.09909481330708        2.68645336541917       -1.92186487400586
