95
 energy: -122.434138913020 gnorm: 0.000302949677 xtb: 6.7.1 (edcfbbe)
C           -7.45894130621643       -1.87134105994596       -0.84987708321946
C           -6.88335117922373       -0.50607503092186       -0.46420732604806
C           -7.38678064101171       -0.15875341441356        0.94409805714443
C           -7.40317048940313        0.53026125114481       -1.47078960294111
C           -5.36129509238784       -0.48062716347044       -0.46563931715849
C           -4.69359904741707        0.67371207868683       -0.14111625747946
C           -3.29111213055276        0.73343136931968       -0.12508055338549
C           -2.50718594244041       -0.41657523217997       -0.43861749798427
C           -3.20863035207740       -1.61340141173779       -0.79224792784940
C           -2.41790712223585       -2.86912165216187       -1.13095288270774
C           -1.49995218754654       -2.58072877138670       -2.32642502563933
C           -3.30804669821473       -4.06086403105673       -1.49994255448113
C           -1.58329151336591       -3.26116168057188        0.09468299649044
C           -4.58353932799455       -1.60416596054724       -0.78976696125263
O           -1.22201643755803       -0.36423221108861       -0.41075008716972
Co          -0.05476495903215        0.95426047757566        0.01641893470878
N           -1.38657224020621        2.19825751096552        0.16531910707104
C           -2.66416071368672        1.96544284721548        0.18124292873070
C           -0.92206156696832        3.54727034112247        0.51146649822242
C           -1.87094824514148        4.65503960635881        0.03125569961382
C           -0.81264956854529        3.60273645214360        2.04387479408091
C            0.48419673423804        3.67076796531300       -0.14534384638631
C            1.28576712883096        4.83738452410816        0.44932681661222
C            0.35957754673506        3.86782593953395       -1.66508796079926
N            1.11526186749636        2.36155419092656        0.06025402165336
C            2.41211585860668        2.29394958714727        0.07590061869682
C            3.18412861231222        1.11964999613174        0.24614882546503
C            4.58326739004449        1.24034080944388        0.33726785617114
C            5.38076258446463        0.14458493952648        0.53117976359038
C            6.89547537433770        0.21369913818123        0.64436762100423
C            7.52488228722139       -0.62596268999219       -0.47611390133243
C            7.32529089213769       -0.33780109767873        2.01119127524176
C            7.42569592732178        1.64503997069187        0.52179435924948
C            4.74530853248941       -1.10829550024229        0.62901682498716
C            3.38877126680856       -1.29520015727533        0.54697873475846
C            2.75972105742626       -2.67788000563427        0.63785312666485
C            1.78697715198529       -2.71025965261857        1.82409295531731
C            3.78928703383819       -3.79433537481502        0.84341673095255
C            2.01164248898039       -2.95832618162662       -0.67160972230842
C            2.54770991779437       -0.15165654913270        0.34758432684246
O            1.26811601061302       -0.25653765281104        0.27210872227281
H           -7.15768072884601       -2.15389208031801       -1.85588231188787
H           -8.54618298125944       -1.82467299589161       -0.82643534309113
H           -7.14211155160883       -2.64197236585883       -0.15108758061197
H           -7.05759727836336        0.83097413749902        1.24815005778600
H           -7.00763196751768       -0.87947094402382        1.66553252911753
H           -8.47442545151813       -0.18017442664663        0.97219808180913
H           -7.02854836206782        0.30547983664443       -2.46720176836846
H           -8.49093597700304        0.51633844899103       -1.49877368255430
H           -7.08249117511382        1.53389438706403       -1.20566865949398
H           -5.23503096762840        1.57538427196007        0.10875155616631
H           -0.90964277962211       -3.46235912051646       -2.56693035784980
H           -0.82361698919370       -1.76338392270858       -2.09906931472048
H           -2.09336640299696       -2.31070501533269       -3.19851049623338
H           -3.95212378396058       -4.34704960585560       -0.67126685325426
H           -2.67562213845046       -4.91348587884903       -1.73977038708028
H           -3.92028042197758       -3.84393353536075       -2.37279760458408
H           -0.89968422316699       -2.46059383912435        0.35402522146480
H           -1.00750089060660       -4.15957759614077       -0.11535185971676
H           -2.23402155866266       -3.45622215703778        0.94548564901789
H           -5.09734908256118       -2.51140194387731       -1.04945315195562
H           -3.34899403908598        2.77388143587823        0.42669430970426
H           -2.26073323614131        4.43159341787995       -0.95858459860507
H           -1.34748932190540        5.60597516864663       -0.00983229169095
H           -2.70497106437887        4.77811353513498        0.71799223769923
H           -0.06342076974690        2.89268222236466        2.39020639291229
H           -0.55118142764629        4.60091849836414        2.38285485903587
H           -1.76912571821549        3.32713236946030        2.48389429990510
H            1.69612471106468        4.57477722353735        1.42098327507545
H            2.10016781198262        5.12600378615287       -0.21087091531852
H            0.64652258178470        5.70756952661252        0.56836328906949
H           -0.03097141766059        4.85296591499748       -1.90298907467047
H           -0.29321504972443        3.10555485012584       -2.08768952026135
H            1.34152727300083        3.76453800460408       -2.12286389793926
H            2.99385999665990        3.20645032210599       -0.03032890539408
H            5.00035351564096        2.23201935545541        0.25448426845779
H            7.20504084051152       -0.25479428819308       -1.44759935704933
H            8.61037029438810       -0.56914676043497       -0.42397300996658
H            7.23532079263075       -1.67013885954752       -0.39921811330117
H            7.02574343440871       -1.37485843784644        2.13249334729447
H            8.40698190069263       -0.28165612135464        2.11587868169341
H            6.86966243086292        0.24344452824325        2.81023281009406
H            7.02587367823494        2.27791881425500        1.31083968587246
H            8.51025159362270        1.64033542043473        0.61153507654523
H            7.17011526053099        2.07444881649396       -0.44416889878949
H            5.37429211771201       -1.96946364631994        0.77601778568430
H            1.30591458340360       -3.68389686888867        1.88825586529306
H            2.32299642816313       -2.52476188820499        2.75351387805171
H            1.01976807493994       -1.95192310212430        1.70809060612521
H            4.34211482636873       -3.65868443416942        1.77074549919033
H            3.26937006978136       -4.74860575387514        0.90239837465257
H            4.48873880900990       -3.84693833261321        0.01170685957465
H            2.70207193118411       -2.92335521242781       -1.51276546921335
H            1.55454379762541       -3.94466863573856       -0.63859075540422
H            1.23424109989254       -2.21851303762716       -0.82692340585534
