[Molden Format]
[Title]
[Atoms] AU
C      1     6 -0.18255785559816E+01 -0.80118355263662E-01 -0.19809967326034E-01
C      2     6  0.92786012860568E+00  0.60075173282168E+00 -0.71632051921056E-01
O      3     8  0.17826865497282E+01  0.26816016054219E+01 -0.36043923840773E+00
O      4     8  0.23979507041126E+01 -0.14381408148126E+01  0.25117206572427E+00
H      5     1 -0.29664355916132E+01  0.16031984090096E+01 -0.28505239798387E+00
H      6     1 -0.22705185457274E+01 -0.96143235013063E+00  0.17820795478776E+01
H      7     1 -0.22137411519699E+01 -0.14415165253424E+01 -0.15089090607428E+01
H      8     1  0.41677764628456E+01 -0.96434370170391E+00  0.21259110277956E+00
[GTO]
           1 0
 s           4   1.00000000000000     
   51.0493630955799      -0.163120632101274     
   8.79112274068875      -0.199110245810007     
  0.706404222589298       0.318820477536558     
  0.269228134134116       0.127065041842404     
 p           4   1.00000000000000     
   5.82636561408000       0.737164515452096     
   1.51068960187200       0.682163716148503     
  0.532564832880000       0.357830539292537     
  0.212023236906000       5.398303027584788E-002
 
           2 0
 s           4   1.00000000000000     
   51.0493630955799      -0.163120632101274     
   8.79112274068875      -0.199110245810007     
  0.706404222589298       0.318820477536558     
  0.269228134134116       0.127065041842404     
 p           4   1.00000000000000     
   5.82636561408000       0.737164515452096     
   1.51068960187200       0.682163716148503     
  0.532564832880000       0.357830539292537     
  0.212023236906000       5.398303027584788E-002
 
           3 0
 s           4   1.00000000000000     
   69.1379619061966      -0.204787563700778     
   11.9061291327073      -0.249970231368273     
  0.956708277443407       0.400258802406396     
  0.364625204960737       0.159522066676936     
 p           4   1.00000000000000     
   8.21241932577816        1.13215567991868     
   2.12935769970981        1.04768407822548     
  0.750664482023609       0.549565082171590     
  0.298852465432831       8.290848659276662E-002
 
           4 0
 s           4   1.00000000000000     
   69.1379619061966      -0.204787563700778     
   11.9061291327073      -0.249970231368273     
  0.956708277443407       0.400258802406396     
  0.364625204960737       0.159522066676936     
 p           4   1.00000000000000     
   8.21241932577816        1.13215567991868     
   2.12935769970981        1.04768407822548     
  0.750664482023609       0.549565082171590     
  0.298852465432831       8.290848659276662E-002
 
           5 0
 s           3   1.00000000000000     
   3.37022769753360       0.273591105889083     
  0.613891182214980       0.264605406538605     
  0.166142911484160       8.246594753408230E-002
 
           6 0
 s           3   1.00000000000000     
   3.37022769753360       0.273591105889083     
  0.613891182214980       0.264605406538605     
  0.166142911484160       8.246594753408230E-002
 
           7 0
 s           3   1.00000000000000     
   3.37022769753360       0.273591105889083     
  0.613891182214980       0.264605406538605     
  0.166142911484160       8.246594753408230E-002
 
           8 0
 s           3   1.00000000000000     
   3.37022769753360       0.273591105889083     
  0.613891182214980       0.264605406538605     
  0.166142911484160       8.246594753408230E-002
 
[MO]
Sym=     1a
Ene=  -0.748500559436974     
Spin= Alpha
Occup=     2.00000000
           1 -3.410280421378618E-002
           2 -4.437477172076223E-002
           3  4.291839212128245E-004
           4 -8.282275479354310E-004
           5 -0.327178112824022     
           6 -0.145641984479248     
           7  9.072242450293931E-002
           8 -1.574787854754554E-002
           9 -0.173114224204119     
          10  4.257465649790608E-004
          11  0.122527786126039     
          12 -1.786718818717209E-002
          13 -0.653015787867639     
          14  5.205465989771199E-002
          15 -0.126909726052461     
          16  1.941206293123569E-002
          17 -6.832955521544112E-004
          18 -2.247852270449744E-003
          19 -2.247855295645594E-003
          20 -0.106366603607288     
Sym=     2a
Ene=  -0.721871024950765     
Spin= Alpha
Occup=     2.00000000
           1  2.718966491762726E-002
           2  2.624066599862426E-002
           3  3.038340976287530E-002
           4 -3.979650842910236E-003
           5  0.254469244049230     
           6  3.418127259713228E-002
           7  0.283703258486821     
           8 -4.079724423390997E-002
           9  0.591580340103500     
          10 -7.458729438734872E-002
          11 -0.154418474949966     
          12  2.123972741051738E-002
          13 -0.373817451344021     
          14 -1.068511903673425E-002
          15  7.657960371491160E-002
          16 -1.135589185451071E-002
          17  5.747614071349759E-003
          18  1.551492380285896E-003
          19  1.551516470009321E-003
          20 -6.239246256495780E-002
Sym=     3a
Ene=  -0.668014508041953     
Spin= Alpha
Occup=     2.00000000
           1  0.272217846007642     
           2  0.123155700648096     
           3 -1.712486496853076E-003
           4  2.374595564511543E-003
           5  0.301499112861660     
           6 -0.180005733229429     
           7 -0.190755712813605     
           8  2.472215143682435E-002
           9 -0.238168020791746     
          10 -8.899625375103763E-002
          11 -6.036838483291506E-002
          12  7.271199763748663E-003
          13 -0.160756965443306     
          14 -0.448193705675557     
          15  0.108315286862729     
          16 -2.353455312555076E-002
          17  5.383657095469487E-002
          18  7.307504477958564E-002
          19  7.307502020956805E-002
          20 -0.233813495809463     
Sym=     4a
Ene=  -0.620375509235227     
Spin= Alpha
Occup=     2.00000000
           1  0.398716200936617     
           2 -9.620105055809580E-003
           3  5.219748445171093E-002
           4 -7.780698600361635E-003
           5 -3.944740795898149E-002
           6 -0.312531435136047     
           7  0.143468360750320     
           8 -2.632144346403882E-002
           9  8.070794592052510E-002
          10 -0.173842674701772     
          11  0.102816874578701     
          12 -1.799834967486397E-002
          13  0.197804491079130     
          14  0.286191595816099     
          15 -0.317965759760078     
          16  5.132412257468656E-002
          17  0.164817578994540     
          18  0.129866573685884     
          19  0.129866802661939     
          20  0.169250374578190     
Sym=     5a
Ene=  -0.586944262525872     
Spin= Alpha
Occup=     2.00000000
           1 -8.917545804113886E-002
           2  2.134133290050366E-002
           3 -6.055192392094946E-002
           4  9.201946338845465E-003
           5 -0.158173747279583     
           6 -6.352323367997742E-002
           7 -7.909806109373393E-002
           8  1.044373018831814E-002
           9  0.516481654839243     
          10  8.746356819783528E-002
          11  0.377439511363956     
          12 -5.355165684667786E-002
          13  0.313274478878522     
          14 -0.391386880599498     
          15 -0.422288274641497     
          16  5.485188149181314E-002
          17 -6.791439131913420E-002
          18 -1.677388410368229E-002
          19 -1.677451051914006E-002
          20 -0.227393743176294     
Sym=     6a
Ene=  -0.582747007960941     
Spin= Alpha
Occup=     2.00000000
           1 -9.966940966373433E-008
           2 -2.869511073134133E-003
           3  2.426371023792290E-002
           4  0.166323961613817     
           5 -2.726914753542567E-007
           6 -8.932680133791084E-003
           7  7.552786739787586E-002
           8  0.517733531705808     
           9 -7.379109133547229E-007
          10 -6.745228482063549E-003
          11  5.703016810640535E-002
          12  0.390939505990835     
          13 -7.343202120726747E-007
          14 -9.039242432931041E-003
          15  7.642978783813312E-002
          16  0.523907133242758     
          17  2.393872252560335E-007
          18  8.393527879730608E-002
          19 -8.393580826990885E-002
          20  3.054632817889267E-007
Sym=     7a
Ene=  -0.563884378882960     
Spin= Alpha
Occup=     2.00000000
           1 -0.260563594653757     
           2  0.252099739637119     
           3  0.164735496276588     
           4 -1.968239319710459E-002
           5  0.169902615147488     
           6 -0.244887126582922     
           7  0.153764487290139     
           8 -2.665666206496799E-002
           9 -0.251144293069171     
          10 -0.403941663910729     
          11 -0.168551895723906     
          12  1.761884346611622E-002
          13  0.158006181112715     
          14 -1.343442298784604E-002
          15 -0.298129736219712     
          16  4.326027184468849E-002
          17 -0.117227797121894     
          18 -0.210765433406744     
          19 -0.210765186222339     
          20 -1.923767466433324E-002
Sym=     8a
Ene=  -0.500589065996927     
Spin= Alpha
Occup=     2.00000000
           1  4.547961619506278E-003
           2  0.342251708257996     
           3  3.275354204286740E-002
           4  1.124342956645766E-003
           5  7.947327788818197E-002
           6 -0.268740156527286     
           7 -0.221265700017815     
           8  2.764196065320128E-002
           9  0.229571436193639     
          10 -2.304049086466737E-002
          11  0.518580835380516     
          12 -7.604773211358604E-002
          13 -0.191922355906291     
          14  0.223598225768818     
          15  0.424185728312498     
          16 -5.802248479825269E-002
          17 -0.138931846955166     
          18 -8.541084830527813E-002
          19 -8.540768180511892E-002
          20  0.200690456551041     
Sym=     9a
Ene=  -0.492530035290004     
Spin= Alpha
Occup=     2.00000000
           1 -3.701890766767845E-007
           2  8.981992878070767E-003
           3 -7.594905929346786E-002
           4 -0.520591350536846     
           5 -5.974621054271802E-008
           6  1.045614153361892E-004
           7 -8.767334912312980E-004
           8 -6.019031110047228E-003
           9 -1.081880157185350E-006
          10  5.600730030194017E-004
          11 -4.736184959359581E-003
          12 -3.244340652735032E-002
          13  3.988296180982071E-007
          14 -8.427826635132868E-003
          15  7.125095438526395E-002
          16  0.488433239784676     
          17 -4.532405300752126E-006
          18 -0.362046196396490     
          19  0.362051516064639     
          20 -3.842984255582525E-007
Sym=    10a
Ene=  -0.489158029762476     
Spin= Alpha
Occup=     2.00000000
           1 -9.171794551856583E-003
           2  0.187482700712372     
           3 -0.536977990270414     
           4  8.157475234085387E-002
           5  3.242139436784978E-002
           6 -3.823851108943341E-002
           7  7.065380768769899E-002
           8 -1.096750364270192E-002
           9 -4.312484525791515E-002
          10 -4.939685021913767E-002
          11 -0.155253013412922     
          12  2.179405821620184E-002
          13 -5.385981968993891E-002
          14  0.104227153004884     
          15 -0.139044259626462     
          16  2.208079818254306E-002
          17 -0.479104345564870     
          18  0.222428063973470     
          19  0.222418725125787     
          20  5.772028336311485E-002
Sym=    11a
Ene=  -0.478149570334288     
Spin= Alpha
Occup=     2.00000000
           1  1.291997582061429E-007
           2 -3.522679227670512E-003
           3  2.978662429726664E-002
           4  0.204169807959058     
           5  1.591684858971335E-007
           6  3.093801651530990E-003
           7 -2.616121856693318E-002
           8 -0.179327242462118     
           9  4.224878652734260E-007
          10  1.181090062361281E-002
          11 -9.985656905924875E-002
          12 -0.684518111920956     
          13 -7.980276988986077E-008
          14 -1.019697777487852E-002
          15  8.621355899963616E-002
          16  0.590970255193712     
          17  2.072691340846216E-006
          18  0.163388809331798     
          19 -0.163391160712322     
          20  1.837948484331700E-007
Sym=    12a
Ene=  -0.427381947464911     
Spin= Alpha
Occup=     2.00000000
           1  0.121500114398319     
           2  0.319898421380088     
           3  0.142303088944925     
           4 -1.523985119652171E-002
           5  8.895505176840446E-002
           6 -0.159230422446378     
           7 -3.730030458000366E-002
           8  2.694011065380411E-003
           9  8.871929617816538E-003
          10  0.813469238238009     
          11 -0.279774309868076     
          12  5.484935167117376E-002
          13 -9.808693591466004E-002
          14  9.718754773375814E-002
          15 -0.275499964498831     
          16  4.186726149214877E-002
          17 -1.419042122828338E-002
          18 -8.577530074386289E-002
          19 -8.577544354511622E-002
          20  6.522352959200074E-002
Sym=    13a
Ene=  -0.235852738718295     
Spin= Alpha
Occup=     0.00000000
           1 -5.630754446863457E-007
           2 -5.064433545132411E-004
           3  4.276769515705683E-003
           4  2.931720678662980E-002
           5  1.434084047539418E-006
           6  1.493822165583389E-002
           7 -0.126304724086813     
           8 -0.865800226036477     
           9  5.146859972906666E-008
          10 -1.097623400544755E-002
          11  9.280438557853549E-002
          12  0.636161878791856     
          13 -3.262502007860233E-007
          14 -6.502519791618844E-003
          15  5.497767479989522E-002
          16  0.376866147264276     
          17  8.959533939934495E-007
          18  0.183664529594126     
          19 -0.183664997548216     
          20  3.276925565163517E-007
Sym=    14a
Ene=   5.758983451701487E-002
Spin= Alpha
Occup=     0.00000000
           1 -0.474843345748889     
           2 -0.340027205631386     
           3 -0.214179892089234     
           4  2.537844152241971E-002
           5  0.565305153053635     
           6 -0.111117314915788     
           7 -0.321966727953963     
           8  4.505326086695569E-002
           9 -1.131842065934432E-002
          10 -6.720179589464333E-003
          11  0.106446313059147     
          12 -1.564513800943212E-002
          13 -0.679623764370057     
          14 -0.315762873655276     
          15 -0.428831231733404     
          16  5.711020138525492E-002
          17  0.287573045753233     
          18  9.823234085732479E-003
          19  9.824578886699327E-003
          20  0.836005527852598     
Sym=    15a
Ene=   0.154089856707575     
Spin= Alpha
Occup=     0.00000000
           1   1.07119480265231     
           2 -0.123813589210285     
           3 -0.325593705320508     
           4  4.536255365084749E-002
           5 -0.262257415423369     
           6  0.201182624077843     
           7 -9.758689898649082E-002
           8  1.770657673903536E-002
           9  0.111864321275087     
          10 -0.175161254753730     
          11 -0.125511136962552     
          12  1.528771881542377E-002
          13 -0.210805251211721     
          14 -0.271137572146158     
          15 -8.861086092089186E-002
          16  8.248718182657213E-003
          17 -0.228452775872061     
          18 -0.658959926742985     
          19 -0.658957238822879     
          20  0.372252088424254     
Sym=    16a
Ene=   0.157643957361776     
Spin= Alpha
Occup=     0.00000000
           1 -0.168360719006465     
           2  0.931303178354534     
           3 -5.989586041533277E-002
           4  2.480600179712687E-002
           5 -0.643526033335986     
           6  0.537642550095220     
           7 -1.313184678828823E-002
           8  1.119101708307422E-002
           9  9.124860414676218E-002
          10 -0.234954133084082     
          11 -0.137117616627642     
          12  1.594928988880549E-002
          13 -0.204186954386018     
          14 -0.288042965257695     
          15 -6.483232671781688E-002
          16  4.488125195918647E-003
          17  0.628658046922562     
          18  0.172947858461019     
          19  0.172950236674562     
          20  0.345492612605918     
Sym=    17a
Ene=   0.186914731736376     
Spin= Alpha
Occup=     0.00000000
           1 -5.521058037406709E-002
           2  0.146299290334755     
           3 -0.703130293794572     
           4  0.105104919631708     
           5  0.409722040560465     
           6  0.217395339983632     
           7 -0.314107647582394     
           8  4.957278064675167E-002
           9  3.115540797314646E-003
          10 -5.323674885890502E-002
          11  8.354230169724171E-002
          12 -1.310563501915916E-002
          13  2.961011279281309E-002
          14  0.661330755245915     
          15 -0.220678042291051     
          16  4.360437419157544E-002
          17  0.721530550879674     
          18 -0.327783268024348     
          19 -0.327768606754491     
          20 -0.627588660659197     
Sym=    18a
Ene=   0.205525235435136     
Spin= Alpha
Occup=     0.00000000
           1  4.989867347936583E-007
           2 -1.831569118460059E-002
           3  0.154863854358408     
           4   1.06152686524250     
           5 -1.079284929073853E-006
           6  3.239091335500463E-003
           7 -2.738338511745475E-002
           8 -0.187719382259069     
           9 -4.925369291570884E-007
          10 -1.038471278913040E-003
          11  8.781557395203818E-003
          12  6.019358898639322E-002
          13 -7.323710694510018E-007
          14 -9.220391463334122E-004
          15  7.768185889889916E-003
          16  5.324808690547309E-002
          17 -9.198591730149189E-006
          18 -0.835027412212173     
          19  0.835036537628315     
          20  3.321436699387949E-006
Sym=    19a
Ene=   0.272404259506330     
Spin= Alpha
Occup=     0.00000000
           1  0.319689434966991     
           2  0.107840884549498     
           3  0.660594050338456     
           4 -9.451085919931944E-002
           5  0.376535261851118     
           6  0.833942944194811     
           7 -0.372939650046079     
           8  6.879470858141588E-002
           9 -0.108489903012980     
          10 -0.188826382008232     
          11  0.269158533486300     
          12 -4.252342624682955E-002
          13 -0.373025075147643     
          14  0.339970043239168     
          15 -0.507643184893412     
          16  7.992211355582855E-002
          17 -0.539558780244204     
          18  0.213080066967228     
          19  0.213073254981641     
          20 -0.146261675447081     
Sym=    20a
Ene=   0.647088733206212     
Spin= Alpha
Occup=     0.00000000
           1 -0.179349079116015     
           2 -0.211843754505213     
           3  0.235049377930985     
           4 -3.794400900155125E-002
           5 -0.518636309748561     
           6 -0.414827193816108     
           7  -1.09163276075325     
           8  0.152091411861267     
           9  0.798366255608791     
          10 -0.335352692311867     
          11 -0.802137594102904     
          12  0.111230322160077     
          13 -0.103224567520112     
          14  0.288825536317043     
          15 -9.053490030519310E-003
          16  6.304462170403544E-003
          17 -0.133462233337084     
          18  8.570182764961916E-002
          19  8.570122448441693E-002
          20 -0.120734606795518     
