[Molden Format]
[Title]
[Atoms] AU
O      1     8  0.51463448742457E+01  0.10271391518320E+01 -0.19459598016383E+01
C      2     6  0.38941145501411E+01 -0.23621677483460E+00 -0.51989262972136E+00
O      3     8  0.49407067776657E+01 -0.20183068565319E+01  0.95577209671944E+00
C      4     6  0.11274197598026E+01 -0.11305553577608E-01 -0.20417417632206E+00
C      5     6 -0.20053779229139E+00 -0.15353988645401E+01  0.14813985492671E+01
C      6     6 -0.27876736183482E+01 -0.12592941862059E+01  0.17147877225532E+01
C      7     6 -0.40570765988191E+01  0.52619046895520E+00  0.27838201810323E+00
C      8     6 -0.27405097522388E+01  0.20461707582053E+01 -0.14011540454643E+01
C      9     6 -0.15511896954609E+00  0.17818352765307E+01 -0.16452735495308E+01
H     10     1  0.67487574805517E+01 -0.20726115124536E+01  0.66233703679167E+00
H     11     1  0.80462225767384E+00 -0.29192039050607E+01  0.25905921338996E+01
H     12     1 -0.38218215300150E+01 -0.24387924422284E+01  0.30204817555857E+01
H     13     1 -0.60789489791018E+01  0.73345630015889E+00  0.46877892432156E+00
H     14     1 -0.37349495466097E+01  0.34352143341939E+01 -0.25173136463050E+01
H     15     1  0.91467108688939E+00  0.29411238055567E+01 -0.29387623882598E+01
[GTO]
           1 0
 s           4   1.00000000000000     
   69.1379619061966      -0.204787563700778     
   11.9061291327073      -0.249970231368273     
  0.956708277443407       0.400258802406396     
  0.364625204960737       0.159522066676936     
 p           4   1.00000000000000     
   8.21241932577816        1.13215567991868     
   2.12935769970981        1.04768407822548     
  0.750664482023609       0.549565082171590     
  0.298852465432831       8.290848659276662E-002
 
           2 0
 s           4   1.00000000000000     
   51.0493630955799      -0.163120632101274     
   8.79112274068875      -0.199110245810007     
  0.706404222589298       0.318820477536558     
  0.269228134134116       0.127065041842404     
 p           4   1.00000000000000     
   5.82636561408000       0.737164515452096     
   1.51068960187200       0.682163716148503     
  0.532564832880000       0.357830539292537     
  0.212023236906000       5.398303027584788E-002
 
           3 0
 s           4   1.00000000000000     
   69.1379619061966      -0.204787563700778     
   11.9061291327073      -0.249970231368273     
  0.956708277443407       0.400258802406396     
  0.364625204960737       0.159522066676936     
 p           4   1.00000000000000     
   8.21241932577816        1.13215567991868     
   2.12935769970981        1.04768407822548     
  0.750664482023609       0.549565082171590     
  0.298852465432831       8.290848659276662E-002
 
           4 0
 s           4   1.00000000000000     
   51.0493630955799      -0.163120632101274     
   8.79112274068875      -0.199110245810007     
  0.706404222589298       0.318820477536558     
  0.269228134134116       0.127065041842404     
 p           4   1.00000000000000     
   5.82636561408000       0.737164515452096     
   1.51068960187200       0.682163716148503     
  0.532564832880000       0.357830539292537     
  0.212023236906000       5.398303027584788E-002
 
           5 0
 s           4   1.00000000000000     
   51.0493630955799      -0.163120632101274     
   8.79112274068875      -0.199110245810007     
  0.706404222589298       0.318820477536558     
  0.269228134134116       0.127065041842404     
 p           4   1.00000000000000     
   5.82636561408000       0.737164515452096     
   1.51068960187200       0.682163716148503     
  0.532564832880000       0.357830539292537     
  0.212023236906000       5.398303027584788E-002
 
           6 0
 s           4   1.00000000000000     
   51.0493630955799      -0.163120632101274     
   8.79112274068875      -0.199110245810007     
  0.706404222589298       0.318820477536558     
  0.269228134134116       0.127065041842404     
 p           4   1.00000000000000     
   5.82636561408000       0.737164515452096     
   1.51068960187200       0.682163716148503     
  0.532564832880000       0.357830539292537     
  0.212023236906000       5.398303027584788E-002
 
           7 0
 s           4   1.00000000000000     
   51.0493630955799      -0.163120632101274     
   8.79112274068875      -0.199110245810007     
  0.706404222589298       0.318820477536558     
  0.269228134134116       0.127065041842404     
 p           4   1.00000000000000     
   5.82636561408000       0.737164515452096     
   1.51068960187200       0.682163716148503     
  0.532564832880000       0.357830539292537     
  0.212023236906000       5.398303027584788E-002
 
           8 0
 s           4   1.00000000000000     
   51.0493630955799      -0.163120632101274     
   8.79112274068875      -0.199110245810007     
  0.706404222589298       0.318820477536558     
  0.269228134134116       0.127065041842404     
 p           4   1.00000000000000     
   5.82636561408000       0.737164515452096     
   1.51068960187200       0.682163716148503     
  0.532564832880000       0.357830539292537     
  0.212023236906000       5.398303027584788E-002
 
           9 0
 s           4   1.00000000000000     
   51.0493630955799      -0.163120632101274     
   8.79112274068875      -0.199110245810007     
  0.706404222589298       0.318820477536558     
  0.269228134134116       0.127065041842404     
 p           4   1.00000000000000     
   5.82636561408000       0.737164515452096     
   1.51068960187200       0.682163716148503     
  0.532564832880000       0.357830539292537     
  0.212023236906000       5.398303027584788E-002
 
          10 0
 s           3   1.00000000000000     
   3.37022769753360       0.273591105889083     
  0.613891182214980       0.264605406538605     
  0.166142911484160       8.246594753408230E-002
 
          11 0
 s           3   1.00000000000000     
   3.37022769753360       0.273591105889083     
  0.613891182214980       0.264605406538605     
  0.166142911484160       8.246594753408230E-002
 
          12 0
 s           3   1.00000000000000     
   3.37022769753360       0.273591105889083     
  0.613891182214980       0.264605406538605     
  0.166142911484160       8.246594753408230E-002
 
          13 0
 s           3   1.00000000000000     
   3.37022769753360       0.273591105889083     
  0.613891182214980       0.264605406538605     
  0.166142911484160       8.246594753408230E-002
 
          14 0
 s           3   1.00000000000000     
   3.37022769753360       0.273591105889083     
  0.613891182214980       0.264605406538605     
  0.166142911484160       8.246594753408230E-002
 
          15 0
 s           3   1.00000000000000     
   3.37022769753360       0.273591105889083     
  0.613891182214980       0.264605406538605     
  0.166142911484160       8.246594753408230E-002
 
[MO]
Sym=     1a
Ene=  -0.742524360229417     
Spin= Alpha
Occup=     2.00000000
           1  0.153550430139432     
           2 -2.087528988490554E-002
           3 -8.030071391268787E-002
           4  7.945555756415823E-002
           5  0.312775891369932     
           6  0.118306280713195     
           7 -0.102776760128328     
           8  7.406417225531921E-002
           9  0.671255952064137     
          10 -2.310191773619674E-002
          11  9.583635430806656E-002
          12 -8.567939809417226E-002
          13  3.583794357731522E-002
          14  4.028158714589544E-002
          15 -1.207271528974383E-002
          16  3.673062993029244E-003
          17  6.972476406154921E-003
          18  9.390731507194652E-003
          19  1.710240370526811E-003
          20 -3.396695500666038E-003
          21 -9.403657349618585E-004
          22  4.463884283410098E-004
          23 -3.774424931061886E-005
          24 -4.954393254840650E-005
          25 -7.031033654404821E-004
          26 -1.856532807165876E-004
          27 -1.469796548634187E-005
          28  4.904581947263217E-005
          29 -1.406739033014619E-003
          30 -2.713831124857321E-004
          31  5.738324983884699E-005
          32 -1.374036121128848E-006
          33 -7.108766784520572E-004
          34  3.642473722210668E-003
          35 -2.257325736779674E-003
          36  1.427808697222194E-003
          37  0.112305976385596     
          38  2.884967243964415E-004
          39  3.720617642126106E-005
          40 -3.794473819484861E-007
          41  1.635555998680224E-005
          42 -6.114037573670779E-004
Sym=     2a
Ene=  -0.714867317095556     
Spin= Alpha
Occup=     2.00000000
           1  0.597679314994585     
           2 -0.104354298510211     
           3 -9.128993199636849E-002
           4  0.105689705132645     
           5  0.269859502410562     
           6  8.784944939779780E-002
           7  0.185760234954803     
           8 -0.191342026493063     
           9 -0.349537025343844     
          10  8.082436377033193E-005
          11  6.345094129485350E-002
          12 -5.965583587883191E-002
          13  3.972702973534642E-002
          14  3.653717369757455E-002
          15  1.688296606842579E-002
          16 -2.283029637482095E-002
          17 -6.256424631666334E-003
          18 -3.107154739110796E-004
          19  2.030082185654023E-003
          20 -1.848962950131796E-003
          21 -2.221474112076498E-003
          22 -9.620129704147625E-004
          23  1.103803092896572E-004
          24  7.964669255225630E-005
          25 -8.463345153934021E-004
          26 -1.378075864822164E-004
          27  1.779157761310351E-004
          28 -1.409251637299943E-004
          29 -8.126775028834902E-005
          30  1.750355849609417E-003
          31 -3.025285260049426E-004
          32 -4.956802000322034E-005
          33  1.673447289310524E-002
          34  1.389080666078454E-002
          35 -5.967293075911988E-003
          36  2.962369369333666E-003
          37 -5.913984606335384E-002
          38 -2.478508289233837E-003
          39 -1.496272406161169E-004
          40 -6.322966267986194E-005
          41 -2.457478612513892E-005
          42  2.995335105237415E-003
Sym=     3a
Ene=  -0.669181650718552     
Spin= Alpha
Occup=     2.00000000
           1  0.185305858246734     
           2  8.261570928891787E-002
           3  4.129634490323600E-003
           4 -1.962192851738224E-002
           5 -0.231344889409929     
           6  0.204358692338035     
           7  5.597039060078735E-002
           8 -9.154439272625225E-002
           9  9.945289446762344E-002
          10  0.297713291067254     
          11 -0.110410831208949     
          12  4.705849493371165E-002
          13 -0.380917109923779     
          14 -2.715864830405891E-002
          15  2.099604531883897E-002
          16 -1.456074809181270E-002
          17 -0.216239894731878     
          18 -3.127266763893139E-002
          19 -6.138847664253257E-002
          20  6.366002373882318E-002
          21 -0.111756656934795     
          22 -4.347090826992453E-002
          23 -2.373043827076833E-002
          24  3.058762712351503E-002
          25 -9.324351945469074E-002
          26 -4.579119454901914E-002
          27  5.747664761861788E-003
          28  3.321896677738218E-003
          29 -0.102841440115875     
          30 -3.610860278097851E-002
          31  3.236593325304568E-002
          32 -2.354234161953447E-002
          33 -0.181891205689794     
          34 -1.625662746777697E-002
          35  6.506015401369108E-002
          36 -5.805568317524561E-002
          37  0.159797002861462     
          38 -4.641643816863837E-002
          39 -1.475167490309596E-002
          40 -1.223917737162669E-002
          41 -1.306718676218621E-002
          42 -3.086653779879381E-002
Sym=     4a
Ene=  -0.654856066514294     
Spin= Alpha
Occup=     2.00000000
           1  0.148650282345704     
           2  4.255897029173998E-002
           3  2.495804357621412E-002
           4 -3.156773150619438E-002
           5 -0.173326916475784     
           6  7.408962701556696E-002
           7  7.501616815476286E-002
           8 -8.462705094147986E-002
           9  0.110797395927907     
          10  0.272233968924802     
          11 -0.133608119816907     
          12  7.371667649613671E-002
          13  3.677506113057372E-002
          14 -0.157423879467589     
          15  4.025391536543951E-002
          16 -7.843388592268449E-003
          17  0.148598885091077     
          18 -9.787923900481492E-002
          19  4.203338095970763E-002
          20 -2.086069069223083E-002
          21  0.251692557196150     
          22  2.362554790177955E-002
          23  5.915862521083599E-002
          24 -6.010707392905994E-002
          25  0.278173272668469     
          26  9.189585170977700E-002
          27 -8.112169830789663E-003
          28 -9.883337334397869E-003
          29  0.264442637164414     
          30  3.104704876239602E-002
          31 -6.505418930113011E-002
          32  5.523244685264880E-002
          33  0.196779750470079     
          34 -8.413593477963426E-002
          35 -2.592523535743033E-002
          36  4.039829192530568E-002
          37  0.159133794532351     
          38  1.044995456949389E-002
          39  4.580263583404458E-002
          40  5.156543092164702E-002
          41  4.762153475792199E-002
          42  2.973382480981915E-002
Sym=     5a
Ene=  -0.630114643260076     
Spin= Alpha
Occup=     2.00000000
           1  3.510465580728091E-003
           2  6.973701110058164E-002
           3 -4.744192943578777E-002
           4  3.130619575112676E-002
           5  3.774351822208324E-002
           6  0.121054616627584     
           7 -9.018034433443073E-002
           8  6.170069307137136E-002
           9 -0.109098462521386     
          10 -0.162517298852602     
          11  0.138660173688146     
          12 -9.936939353261133E-002
          13 -0.211321882086444     
          14  1.709175016498898E-002
          15 -0.116354464442456     
          16  0.106110411301384     
          17  0.164614386538747     
          18 -0.112255837033697     
          19 -2.895495712546589E-002
          20  4.860354338932139E-002
          21  0.342349633805957     
          22  3.824140883468342E-003
          23  2.488598240685685E-002
          24 -2.412006520239053E-002
          25  0.218691503982219     
          26  1.847750314964097E-002
          27 -8.158601150359021E-002
          28  7.316591405865337E-002
          29 -0.103777826501050     
          30 -0.120959535909444     
          31 -3.070632788323933E-002
          32  5.190775111749359E-002
          33 -0.339670292891245     
          34 -1.945619259473604E-002
          35  3.217463451086378E-002
          36 -2.653556963668081E-002
          37 -0.110989195414639     
          38  5.181926995193215E-002
          39  0.100914904917040     
          40  6.514541954892805E-002
          41 -2.997624031399638E-002
          42 -9.970268428998764E-002
Sym=     6a
Ene=  -0.625572588407621     
Spin= Alpha
Occup=     2.00000000
           1  0.116181322885594     
           2 -1.640864033720561E-002
           3  5.781420056210174E-002
           4 -5.121592624963745E-002
           5 -9.031103178009464E-002
           6 -7.710522414758592E-002
           7  8.796673284600250E-002
           8 -6.799342929048374E-002
           9  9.548337652919475E-002
          10  0.171082808070289     
          11 -0.161358178537607     
          12  0.119072417928122     
          13  0.202109197241453     
          14 -6.096108511695063E-002
          15 -5.090443211032730E-002
          16  5.946198320630113E-002
          17  0.328619990717046     
          18 -1.744387489803896E-002
          19  2.684437093876627E-002
          20 -2.190874340524862E-002
          21  0.124266649726337     
          22  0.131961177872699     
          23 -6.491800223256602E-002
          24  3.587758576535073E-002
          25 -0.253162398620896     
          26 -1.345971309075688E-002
          27 -8.891517700044833E-002
          28  8.613986838928171E-002
          29 -0.353993036146475     
          30  3.011196120599056E-002
          31  2.835246546623604E-002
          32 -3.238656586203330E-002
          33 -8.602070505076194E-002
          34  0.132794612235074     
          35 -6.022454311479564E-002
          36  3.130718859120913E-002
          37  0.115409256697886     
          38  9.134192182209144E-002
          39  3.884629330831645E-002
          40 -8.113258240783615E-002
          41 -0.109959912536019     
          42 -2.070700897327732E-002
Sym=     7a
Ene=  -0.597335155142462     
Spin= Alpha
Occup=     2.00000000
           1 -8.087294687135636E-002
           2 -0.201525958051384     
           3  5.920502979406903E-002
           4 -1.725380205380994E-002
           5  6.787205802523961E-002
           6 -0.241803578417848     
           7  0.126629913285089     
           8 -7.295558353067240E-002
           9  0.122822356950449     
          10  8.429428088456044E-002
          11 -0.179238708225000     
          12  0.152414536769397     
          13  0.111907767416367     
          14  0.170105256082088     
          15  6.496744390698254E-002
          16 -9.347500393506052E-002
          17 -0.239115910406302     
          18  1.753302872877307E-002
          19  1.782121305987399E-002
          20 -2.009142633614817E-002
          21  8.055466750730909E-002
          22 -0.196511255383034     
          23  8.432164663371304E-002
          24 -4.181755946586661E-002
          25  0.290760666279595     
          26 -6.817062407265824E-002
          27 -6.477942217409675E-002
          28  7.387734666606588E-002
          29 -0.161820946957383     
          30 -0.129711029411487     
          31 -5.755250158493378E-002
          32  7.880956933458837E-002
          33 -0.119623915523605     
          34  0.166635733145689     
          35 -5.290864035957419E-002
          36  1.798308938874563E-002
          37  7.377529229795743E-002
          38 -9.115699084794106E-002
          39  4.336364342135704E-002
          40  0.144119413400129     
          41 -6.841003863458713E-002
          42 -1.638390747362969E-002
Sym=     8a
Ene=  -0.588354597188480     
Spin= Alpha
Occup=     2.00000000
           1  0.412174510069583     
           2  8.103744439290841E-002
           3  0.192966262039866     
           4 -0.196817638365671     
           5 -0.126273103522911     
           6 -0.118557618593042     
           7  1.997481153429666E-002
           8  3.812639255132971E-003
           9  0.242957888660749     
          10 -0.258161697357842     
          11 -0.235248932571756     
          12  0.270306934920368     
          13  1.779597594806866E-002
          14  2.531804446203612E-002
          15 -0.127399924616671     
          16  0.114925203936147     
          17  0.106812824250755     
          18  0.142435188099892     
          19 -1.177971671778420E-002
          20 -1.606508333105340E-002
          21 -0.187344664627494     
          22  3.517407700905962E-002
          23  1.701051589695811E-002
          24 -2.269035854391451E-002
          25  8.490596200904002E-002
          26 -2.582795366609282E-002
          27  0.119153796012087     
          28 -0.107077153333558     
          29  0.147133996734805     
          30 -0.132385632807389     
          31 -3.432450297182517E-003
          32  2.844914601842098E-002
          33 -0.186932637718086     
          34 -6.229725723909051E-002
          35  7.978928589602956E-003
          36  4.369398154871437E-003
          37 -0.111930406956950     
          38  9.527031555530222E-002
          39 -9.406647198577726E-002
          40  4.793884205672778E-002
          41  8.108626993387427E-002
          42 -7.860542126323924E-002
Sym=     9a
Ene=  -0.577116401269967     
Spin= Alpha
Occup=     2.00000000
           1  0.245069834943806     
           2  4.364825474058364E-002
           3  0.143479699879605     
           4 -0.143178683992499     
           5 -6.588957264193579E-002
           6 -4.598170311178077E-002
           7 -2.752975190400449E-002
           8  3.463781641253078E-002
           9  0.233012253935979     
          10 -0.360511060547995     
          11 -0.117886680846437     
          12  0.179494162178797     
          13 -0.156971173271017     
          14  3.397761509197750E-002
          15  0.107747934915481     
          16 -0.107750532319752     
          17 -0.134996893874083     
          18 -0.132979475572350     
          19 -6.777538328148165E-002
          20  8.904105698019750E-002
          21  0.233652746588985     
          22 -7.120147152596917E-002
          23 -5.262394981306280E-002
          24  6.302931968212031E-002
          25 -9.274471093850292E-002
          26  2.250267240081353E-002
          27 -0.125304026109790     
          28  0.113491577599513     
          29 -4.913496988056554E-002
          30  0.168589691901278     
          31  4.458380872566889E-002
          32 -7.402671614451699E-002
          33  0.232725013820091     
          34  1.839133940638282E-005
          35  8.173201422287091E-002
          36 -7.682704044947000E-002
          37 -0.188697339490171     
          38 -1.319324672957249E-002
          39  0.154421520487152     
          40 -5.012316545604785E-002
          41 -2.506156979982513E-002
          42  0.143063036731956     
Sym=    10a
Ene=  -0.574050960803777     
Spin= Alpha
Occup=     2.00000000
           1  1.579966909532864E-007
           2 -5.481900031841169E-002
           3 -0.270447016790516     
           4 -0.287726453060766     
           5 -1.823982596269335E-007
           6 -7.227630888746268E-002
           7 -0.356571816222353     
           8 -0.379353682719220     
           9  2.304738139804041E-007
          10 -7.607554841111484E-002
          11 -0.375313468513658     
          12 -0.399292833878727     
          13 -2.164341108240788E-007
          14 -2.085240555539359E-002
          15 -0.102874708224915     
          16 -0.109447966145429     
          17 -4.470277969223978E-007
          18 -6.908696174447241E-003
          19 -3.408261716314556E-002
          20 -3.626017280116741E-002
          21  2.449437869727345E-007
          22 -2.285891705088998E-003
          23 -1.127688993063241E-002
          24 -1.199750551839087E-002
          25 -2.494263647420018E-007
          26 -1.396370056331803E-003
          27 -6.892724916607904E-003
          28 -7.332836218417720E-003
          29 -2.975219557747066E-007
          30 -2.248718616838162E-003
          31 -1.109528533654959E-002
          32 -1.180375878055732E-002
          33  1.180164652487001E-007
          34 -6.752244001037242E-003
          35 -3.331234342006564E-002
          36 -3.544069572775693E-002
          37 -1.989607630697349E-007
          38 -2.167935322989334E-007
          39  7.663923603113011E-008
          40 -4.166120340016012E-007
          41 -3.134051463785456E-007
          42  5.063232881230799E-008
Sym=    11a
Ene=  -0.562584134316791     
Spin= Alpha
Occup=     2.00000000
           1 -0.258235835887506     
           2 -0.321060265023411     
           3 -5.975632547122359E-002
           4  0.117337354161827     
           5  0.140940626383349     
           6 -0.147666294881449     
           7  0.139173996128303     
           8 -0.102682297615844     
           9  2.027326599986668E-002
          10  0.108967371572953     
          11 -0.122919868909446     
          12  9.477648526947251E-002
          13 -0.124497459195749     
          14  0.208245942771748     
          15 -3.893639680695347E-002
          16 -3.077961878887596E-003
          17  0.133476132897882     
          18 -6.045576905951136E-002
          19 -0.150396476414881     
          20  0.152882714265263     
          21  9.823565841055398E-002
          22  8.916408021840509E-002
          23 -0.135342849276753     
          24  0.110226872828441     
          25 -7.689716380809899E-002
          26 -1.789297335159645E-002
          27  7.448147301968976E-002
          28 -6.659938175360601E-002
          29  0.217145908038079     
          30 -7.239914135823719E-002
          31  0.117135996244658     
          32 -9.630749979982571E-002
          33 -6.292150949305689E-002
          34 -6.223826150445508E-002
          35  0.131766422423475     
          36 -0.111995318707135     
          37  7.521741182659462E-002
          38  0.146966234770120     
          39  0.107572045283946     
          40 -1.778664349497633E-002
          41  0.194935594583826     
          42  4.726179969219426E-002
Sym=    12a
Ene=  -0.530444712979129     
Spin= Alpha
Occup=     2.00000000
           1 -0.130877980617371     
           2 -0.236317332365888     
           3 -6.268192005990562E-002
           4  0.103943608603586     
           5  7.233379138996951E-002
           6 -3.313114860871441E-002
           7  9.007817058174260E-002
           8 -7.835506795565288E-002
           9  0.135479292262669     
          10 -0.135932220466623     
          11 -0.146628708061497     
          12  0.163720522987155     
          13 -0.116642214324291     
          14  1.101596372175387E-002
          15  2.856390118381570E-002
          16 -2.894675758101647E-002
          17 -0.101086913133066     
          18 -0.183237791446257     
          19  6.916804852838751E-002
          20 -3.010266484499750E-002
          21  4.004172830333203E-002
          22  0.146522273857738     
          23  8.581413804423815E-002
          24 -0.108576529674902     
          25 -9.633351719642200E-002
          26  0.328739548961468     
          27 -7.827841484191019E-004
          28 -6.189693920511059E-002
          29  5.408689314320120E-002
          30  5.658431623278624E-002
          31 -0.129333801531454     
          32  0.110786216729845     
          33 -0.143363447112634     
          34 -0.128761920441208     
          35 -7.494279052253015E-002
          36  9.497470977473164E-002
          37 -8.050009974855006E-002
          38 -0.140350758715872     
          39 -0.124255981882178     
          40 -0.289596269525415     
          41 -0.104584681269092     
          42 -0.176957289331619     
Sym=    13a
Ene=  -0.509267730116059     
Spin= Alpha
Occup=     2.00000000
           1  0.170545708117583     
           2  0.119367351998401     
           3  0.184493733657560     
           4 -0.196156394297072     
           5  3.484504347405162E-002
           6 -0.186236379482047     
           7 -5.405555462846567E-002
           8  8.629202286058417E-002
           9 -0.106585064969115     
          10  0.174761824194144     
          11  0.108724480238343     
          12 -0.135491763352986     
          13  0.171134830078421     
          14  0.124906900771631     
          15 -0.102174232915512     
          16  7.224072908813925E-002
          17 -0.149282263546124     
          18 -7.661097443228185E-003
          19  0.151535825116017     
          20 -0.140975490396401     
          21  0.162934768164205     
          22 -0.132903529847093     
          23 -3.644637275902213E-002
          24  5.957926189611359E-002
          25 -0.159495380612968     
          26  0.115027061855410     
          27 -7.879819356040789E-002
          28  5.215086323514690E-002
          29  0.153869845732332     
          30 -1.751637333867874E-002
          31  0.148183160289156     
          32 -0.135946368988730     
          33 -0.167347361725068     
          34 -0.127956813256171     
          35 -1.409635231940665E-002
          36  3.762902454188067E-002
          37  0.116207170939330     
          38 -0.235001908581604     
          39  0.184472308138363     
          40 -0.175765524506314     
          41  0.224455075034226     
          42 -0.153126407436949     
Sym=    14a
Ene=  -0.503705267858764     
Spin= Alpha
Occup=     2.00000000
           1  9.273597901141346E-002
           2  0.125102856858031     
           3  0.110803066171546     
           4 -0.127983789214335     
           5 -2.308215457140106E-002
           6 -2.517094950100851E-002
           7 -6.728723586370527E-002
           8  6.804219445635279E-002
           9  2.956816256152997E-003
          10 -1.506767530284783E-002
          11  0.113777299012746     
          12 -0.104073948230079     
          13  5.410605707165340E-002
          14 -7.437402427622411E-003
          15  0.226208473247833     
          16 -0.211206353973303     
          17 -4.349165762577853E-002
          18 -0.275905223385540     
          19 -4.920507503448950E-002
          20  9.881693655170465E-002
          21  3.382086194335256E-002
          22  0.227221525467634     
          23 -0.183380582258460     
          24  0.129076652778946     
          25 -3.855244990277966E-002
          26 -1.375937464816512E-002
          27  0.228739296871728     
          28 -0.212380790514383     
          29  2.340329451459387E-002
          30 -0.285403390463193     
          31 -5.346655862789160E-002
          32  0.104632176676819     
          33 -1.841446767348958E-002
          34  0.255239025216035     
          35 -0.172067637123964     
          36  0.113105073821516     
          37 -1.261993019551865E-002
          38 -6.375132600812923E-002
          39  7.814757449748004E-002
          40 -5.737722407841184E-003
          41  4.972776072626050E-002
          42 -3.873023947554426E-002
Sym=    15a
Ene=  -0.492718257645642     
Spin= Alpha
Occup=     2.00000000
           1  0.108136573916721     
           2 -8.246961099704037E-003
           3  0.230251242161507     
           4 -0.214850781157028     
           5  3.201985322420465E-002
           6 -0.144095601158561     