[Molden Format]
[Title]
[Atoms] AU
O      1     8 -0.19456182428101E+01 -0.11105538096644E+01  0.19798907420057E+01
P      2    15 -0.35302523321005E-02  0.26539181934943E-01  0.79607125783470E-01
O      3     8  0.93254448362931E+00 -0.21339019412662E+01 -0.17236508590306E+01
K      4    19 -0.27658645171819E+01 -0.44406014327260E+01 -0.61333284765736E+00
O      5     8 -0.13165343586469E+01  0.21503843387214E+01 -0.14667551586562E+01
K      6    19 -0.22220335155305E+01  0.45256848502344E+01  0.19270348924156E+01
O      7     8  0.23277229932720E+01  0.11627678101430E+01  0.14718781429509E+01
K      8    19  0.49933134096004E+01 -0.18031899737752E+00 -0.16546720378116E+01
[GTO]
           1 0
 s           4   1.00000000000000     
   69.1379619061966      -0.204787563700778     
   11.9061291327073      -0.249970231368273     
  0.956708277443407       0.400258802406396     
  0.364625204960737       0.159522066676936     
 p           4   1.00000000000000     
   8.21241932577816        1.13215567991868     
   2.12935769970981        1.04768407822548     
  0.750664482023609       0.549565082171590     
  0.298852465432831       8.290848659276662E-002
 
           2 0
 s           4   1.00000000000000     
   4.99572725094895      -7.848378999131229E-002
   1.40717367027065      -0.158795553402872     
  0.252328121052452       0.190772681070961     
  0.124146465507327       5.350695336983156E-002
 p           4   1.00000000000000     
   6.71286585058286      -0.220902037941297     
  0.693707288951699       0.248633708227354     
  0.313531993145390       0.195527121452620     
  0.151568283911478       2.891512477691128E-002
 d           3   1.00000000000000     
  0.712797703517466       0.153501119911119     
  0.223498774710177       6.992737072477515E-002
  8.705828095292989E-002  9.316622838752151E-003
 
           3 0
 s           4   1.00000000000000     
   69.1379619061966      -0.204787563700778     
   11.9061291327073      -0.249970231368273     
  0.956708277443407       0.400258802406396     
  0.364625204960737       0.159522066676936     
 p           4   1.00000000000000     
   8.21241932577816        1.13215567991868     
   2.12935769970981        1.04768407822548     
  0.750664482023609       0.549565082171590     
  0.298852465432831       8.290848659276662E-002
 
           4 0
 s           4   1.00000000000000     
  0.248777478594916      -2.813527106587221E-002
  0.127619930264404      -4.330084751159855E-002
  3.898765064060293E-002  5.571561692271002E-002
  2.170764511081965E-002  1.417888743741005E-002
 p           4   1.00000000000000     
  0.595606232776694      -4.501238283622308E-003
  0.172688155142778      -9.541835644326863E-003
  3.013991075039399E-002  1.154860339922665E-002
  1.478940880683065E-002  3.027310123757604E-003
 
           5 0
 s           4   1.00000000000000     
   69.1379619061966      -0.204787563700778     
   11.9061291327073      -0.249970231368273     
  0.956708277443407       0.400258802406396     
  0.364625204960737       0.159522066676936     
 p           4   1.00000000000000     
   8.21241932577816        1.13215567991868     
   2.12935769970981        1.04768407822548     
  0.750664482023609       0.549565082171590     
  0.298852465432831       8.290848659276662E-002
 
           6 0
 s           4   1.00000000000000     
  0.248777478594916      -2.813527106587221E-002
  0.127619930264404      -4.330084751159855E-002
  3.898765064060293E-002  5.571561692271002E-002
  2.170764511081965E-002  1.417888743741005E-002
 p           4   1.00000000000000     
  0.595606232776694      -4.501238283622308E-003
  0.172688155142778      -9.541835644326863E-003
  3.013991075039399E-002  1.154860339922665E-002
  1.478940880683065E-002  3.027310123757604E-003
 
           7 0
 s           4   1.00000000000000     
   69.1379619061966      -0.204787563700778     
   11.9061291327073      -0.249970231368273     
  0.956708277443407       0.400258802406396     
  0.364625204960737       0.159522066676936     
 p           4   1.00000000000000     
   8.21241932577816        1.13215567991868     
   2.12935769970981        1.04768407822548     
  0.750664482023609       0.549565082171590     
  0.298852465432831       8.290848659276662E-002
 
           8 0
 s           4   1.00000000000000     
  0.248777478594916      -2.813527106587221E-002
  0.127619930264404      -4.330084751159855E-002
  3.898765064060293E-002  5.571561692271002E-002
  2.170764511081965E-002  1.417888743741005E-002
 p           4   1.00000000000000     
  0.595606232776694      -4.501238283622308E-003
  0.172688155142778      -9.541835644326863E-003
  3.013991075039399E-002  1.154860339922665E-002
  1.478940880683065E-002  3.027310123757604E-003
 
[MO]
Sym=     1a
Ene=  -0.588303304737655     
Spin= Alpha
Occup=     2.00000000
           1 -0.276171876673715     
           2 -4.481269022241170E-002
           3 -2.227226377523880E-002
           4  4.632133952224305E-002
           5 -0.498783186675090     
           6 -9.156505879248360E-003
           7  2.111963574030867E-002
           8  1.054659379214471E-002
           9  3.233066830375794E-004
          10 -5.221030720579146E-003
          11  4.897724037541566E-003
          12  1.513858168242119E-003
          13  8.645725623551219E-003
          14 -1.382480492999262E-002
          15 -0.375339820808431     
          16  2.192743906264627E-002
          17 -5.077375475798338E-002
          18 -4.447106755966666E-002
          19  2.693836957332733E-002
          20 -1.615617080749720E-002
          21 -2.331966966665715E-002
          22 -3.046945005463240E-003
          23 -0.243327602291751     
          24 -3.091061729745324E-002
          25  5.093798148370794E-002
          26 -3.263242896516189E-002
          27  3.960202940398034E-002
          28 -9.040768805694471E-003
          29  1.874505105667310E-002
          30  9.356578793941377E-003
          31 -0.271802949831832     
          32  5.108666261854173E-002
          33  2.867759969886121E-002
          34  3.480497533614189E-002
          35  2.733693509391017E-002
          36  2.703310886836215E-002
          37  5.263393664208043E-004
          38 -8.834256965445274E-003
Sym=     2a
Ene=  -0.565494500067694     
Spin= Alpha
Occup=     2.00000000
           1  0.288168824661063     
           2 -1.303344301931264E-003
           3  2.455467841733943E-002
           4  6.353460693861693E-003
           5  6.871935254043229E-002
           6 -6.304942748040905E-002
           7  0.134201979875657     
           8  0.116275844839272     
           9  3.700718017720483E-002
          10 -2.978173634950980E-002
          11 -7.225443827695029E-003
          12  4.174695144994600E-002
          13  3.091736859586817E-002
          14 -7.904431413852073E-002
          15 -0.695189660633756     
          16 -1.050933942565404E-002
          17  2.225279986914650E-002
          18  1.737463636559243E-002
          19 -3.480307317768713E-002
          20 -1.122166387942002E-002
          21 -1.058609869536399E-002
          22  3.083321688154499E-003
          23  0.263121907899468     
          24 -2.084562204231200E-003
          25  7.971804796613618E-003
          26  2.454723847751001E-002
          27  4.929947714679744E-002
          28  1.745736460110633E-002
          29 -3.453537571283113E-002
          30 -9.955979239216985E-003
          31  0.258596047419260     
          32 -1.928127704102865E-002
          33  1.509792224072856E-002
          34  8.873327051202735E-003
          35 -3.739203029165107E-002
          36  1.658816010641798E-002
          37  3.681433041689425E-003
          38 -8.608070256215817E-004
Sym=     3a
Ene=  -0.561914192645012     
Spin= Alpha
Occup=     2.00000000
           1  0.599881151179764     
           2 -1.998350075698973E-002
           3 -1.330103324449185E-002
           4 -4.847824953517328E-003
           5 -4.907435256718130E-003
           6 -0.167177668708663     
           7 -9.890998507746908E-002
           8  2.391371217986737E-002
           9 -1.967541375488505E-002
          10  1.567531093744018E-003
          11  1.810788266114103E-002
          12 -1.126774923680660E-003
          13 -8.722625247243251E-002
          14 -4.266542832764838E-002
          15  1.585958795286160E-002
          16 -2.583974023108636E-002
          17 -1.581761937692103E-002
          18  3.305887544045330E-003
          19  5.601105533749505E-002
          20  1.225856780663059E-002
          21  2.922043486003397E-002
          22  5.305783435939359E-003
          23 -3.730099596069669E-002
          24 -2.510197455456314E-002
          25 -1.345463678492077E-002
          26  2.730763246296178E-003
          27 -2.059780794377073E-003
          28 -4.862138413348651E-003
          29 -1.037122492020125E-003
          30  1.347621696383422E-003
          31 -0.585221394910983     
          32 -1.798232561181094E-002
          33 -1.015775238932625E-002
          34  1.136050580648036E-002
          35 -5.229300486454801E-002
          36  2.876082552680202E-002
          37 -6.390498100877793E-003
          38 -1.022768010399895E-002
Sym=     4a
Ene=  -0.559185791096186     
Spin= Alpha
Occup=     2.00000000
           1  0.313222989377281     
           2  9.553726874462303E-003
           3 -1.598014938150493E-002
           4  1.938283740821652E-002
           5 -1.804716212723555E-002
           6  7.792291924157943E-002
           7 -9.458945141445771E-002
           8  0.149918658901598     
           9  3.825420559323186E-002
          10 -4.156115225046252E-002
          11  3.306946657230661E-003
          12  7.749477562184323E-002
          13 -2.834822355604705E-002
          14  4.367807164031882E-002
          15 -1.011328888489562E-002
          16  1.204681338817502E-002
          17 -1.532920304859681E-002
          18  1.990109262769412E-002
          19  1.798697729268461E-002
          20  5.303577719777170E-003
          21  2.365628136092680E-003
          22  1.153110958422860E-002
          23 -0.695855045064451     
          24  5.350137345752852E-003
          25 -4.493057837477871E-003
          26  1.363097260319471E-002
          27 -3.372736265349752E-002
          28 -4.002536795644138E-003
          29  1.157884131439112E-002
          30  1.728691476826249E-002
          31  0.364803161961621     
          32  1.306593855460604E-002
          33 -1.409688736420785E-002
          34  1.818422558365452E-002
          35  2.138617942277635E-002
          36 -4.078096856539478E-003
          37 -1.480761278079921E-003
          38  1.311129915388941E-002
Sym=     5a
Ene=  -0.477303174640850     
Spin= Alpha
Occup=     2.00000000
           1 -0.343552348669512     
           2  0.192414894051997     
           3  0.105581459331406     
           4 -0.181290580059988     
           5  0.480138260210192     
           6  7.577463314496136E-003
           7 -1.729644889050486E-002
           8 -4.218818843360851E-003
           9 -3.800401442457859E-003
          10 -2.227282933958017E-003
          11  6.027684376415876E-003
          12 -1.753615799916530E-003
          13  2.237424782400067E-003
          14 -1.237292745642830E-003
          15 -0.335463970390241     
          16 -9.627756621146530E-002
          17  0.221598321302992     
          18  0.186102790187648     
          19 -5.151495780349653E-002
          20 -1.415066615801718E-002
          21 -1.713636030771868E-002
          22 -5.412185503006796E-003
          23 -0.347221887236405     
          24  0.122504116810985     
          25 -0.200447819927384     
          26  0.137681884271443     
          27 -4.841603147854896E-002
          28 -9.170054758196445E-003
          29  2.019943693406618E-002
          30  1.487017804831637E-002
          31 -0.344266742012548     
          32 -0.223085902440557     
          33 -0.115575222392181     
          34 -0.130883532697897     
          35 -5.179720520193506E-002
          36  2.092333161212104E-002
          37  2.261582640879026E-003
          38 -1.028289338772065E-002
Sym=     6a
Ene=  -0.421833096965896     
Spin= Alpha
Occup=     2.00000000
           1  8.553214339693389E-002
           2 -0.129610001787223     
           3 -0.320145346651995     
           4 -7.799265645376934E-003
           5 -1.949784167638261E-002
           6  0.116986801696514     
           7 -0.255538133948695     
           8 -0.292279105498474     
           9  4.340914894473424E-002
          10 -3.420338156631185E-002
          11 -9.205767378422387E-003
          12  5.102588721455118E-002
          13  2.806113069033622E-002
          14 -7.983400652299041E-002
          15 -0.176470960273091     
          16 -0.148274572171624     
          17  0.357414196757504     
          18  0.246833679010560     
          19  7.674695816525822E-003
          20 -1.800514382204767E-002
          21  1.261518146453869E-002
          22  2.058051763022864E-002
          23  5.825940355052744E-002
          24  1.001724563298108E-002
          25 -6.279738812886586E-002
          26 -0.291924614487590     
          27 -4.265857564390065E-002
          28 -7.862909921993832E-004
          29 -2.076785561456755E-003
          30 -1.045185132880821E-002
          31  7.459906515909998E-002
          32  0.314671988853108     
          33 -8.153182269816402E-002
          34 -8.463215804024053E-002
          35  8.762738775146734E-003
          36  2.437926277907022E-003
          37  2.321048929695132E-002
          38  1.624608186155887E-002
Sym=     7a
Ene=  -0.420269631201388     
Spin= Alpha
Occup=     2.00000000
           1 -0.158810481754143     
           2  0.162021676386639     
           3  7.675774431589910E-002
           4 -0.374062265709334     
           5 -1.744549397510736E-003
           6 -0.342354301972719     
           7 -0.204839128253550     
           8  4.189621170565059E-002
           9  1.200343066829487E-002
          10  9.552109226852791E-003
          11 -2.155553989514766E-002
          12  1.254603463330551E-002
          13  0.101795359851423     
          14  4.732964771721747E-002
          15 -6.153342631337427E-003
          16 -0.297353551479520     
          17 -0.150008630013616     
          18  5.372453053236893E-002
          19  3.947423384275935E-003
          20  5.086392215131920E-003
          21 -2.713032835430995E-003
          22 -2.533765490382009E-002
          23  9.456835027182520E-003
          24 -0.252333934757498     
          25 -0.118483013735881     
          26  1.244096385809215E-002
          27 -3.743593997859228E-004
          28  9.816517923391579E-003
          29  5.282762203803870E-003
          30 -2.871797761323272E-003
          31  0.160857718096615     
          32  0.233394763707441     
          33  0.100001965692971     
          34  0.327214570858065     
          35 -6.553511918556216E-003
          36  5.052753734359823E-003
          37  9.003710065024558E-003
          38  2.561797414050519E-002
Sym=     8a
Ene=  -0.418608727317500     
Spin= Alpha
Occup=     2.00000000
           1 -6.249843153812607E-002
           2  0.315627346465921     
           3 -6.388939546408222E-002
           4  1.971887789657479E-002
           5 -8.876713957998963E-003
           6  0.175148663164656     
           7 -0.235944820845770     
           8  0.279738989948591     
           9 -3.170629883499539E-002
          10  4.379846367173484E-002
          11 -1.209216483673945E-002
          12 -7.764672554258384E-002
          13  3.528301178005240E-002
          14 -6.001891922981682E-002
          15 -1.944894442835932E-002
          16  0.106489597108110     
          17 -0.110121246703600     
          18  0.290954439698175     
          19 -2.504157536288253E-002
          20  7.910125016384665E-003
          21 -2.281196807799080E-003
          22  3.290598416666598E-003
          23  0.190287729722651     
          24 -0.207527709855658     
          25  0.372882847442933     
          26 -0.176255172755704     
          27  3.163491723288692E-002
          28 -5.526322179071031E-003
          29  3.588730586106965E-003
          30 -2.983897542236707E-002
          31 -7.386567376451046E-002
          32 -0.131680595900768     
          33 -0.299899148920227     
          34  4.690777881647838E-002
          35 -2.633877266818029E-002
          36 -2.207791700843119E-003
          37 -7.378956362203935E-003
          38  1.969742984409765E-003
Sym=     9a
Ene=  -0.371471339340140     
Spin= Alpha
Occup=     2.00000000
           1  7.301452847530385E-003
           2  0.136102908555973     
           3 -0.393787231552349     
           4  1.647163519234960E-002
           5  1.694911387208799E-004
           6  3.476986278706731E-002
           7  2.017491217442034E-002
           8 -4.158275948710510E-003
           9 -0.164540949341066     
          10  0.170632214318367     
          11 -6.091264977300214E-003
          12  0.133585743701498     
          13  3.472265655062098E-002
          14 -9.836110238306025E-003
          15  1.267792525521686E-004
          16 -0.404044789620844     
          17 -0.219187883068906     
          18  4.868353897939874E-002
          19  7.705526100641762E-002
          20  6.476558597097391E-003
          21 -4.065868241201931E-003
          22  8.017898958357713E-003
          23 -5.078677038199907E-004
          24  0.332456374052958     
          25  0.175180088834420     
          26 -3.608871521252768E-002
          27 -1.907734182709204E-003
          28  1.355963220856084E-002
          29  7.557767061902042E-003
          30 -1.245501051390220E-003
          31 -7.787058559597997E-003
          32 -0.249134053916585     
          33  0.330131473692272     
          34 -6.217446309669706E-003
          35 -7.414590215747711E-002
          36 -1.613361136983473E-003
          37  7.296919450745635E-003
          38 -9.077154025647525E-003
Sym=    10a
Ene=  -0.367885896584246     
Spin= Alpha
Occup=     2.00000000
           1  1.119718708415832E-002
           2  0.246511480215778     
           3  0.113517018575379     
           4  0.318852026656613     
           5 -2.570600338849530E-003
           6  9.904590669990674E-003
           7 -1.815500002705810E-002
           8  5.974636740776784E-003
           9 -0.114960166654989     
          10 -0.118779981468047     
          11  0.233740148123036     
          12  2.598907896854101E-003
          13  4.514520827156998E-002
          14  5.531020572272213E-003
          15  6.955850348475165E-003
          16 -0.170943119749982     
          17  0.240313410919164     
          18 -0.338979840516229     
          19 -3.643838153680063E-002
          20  2.933044552892505E-003
          21  1.132200909132451E-002
          22 -6.449478911105239E-003
          23  1.665394542732353E-002
          24  5.070557843914366E-002
          25 -0.170751923158113     
          26 -0.360953792597769     
          27 -3.923810075288827E-003
          28  9.185644183187987E-003
          29 -1.547657553992108E-002
          30  4.192685833190575E-003
          31  1.147797393792479E-002
          32 -0.168548150332836     
          33 -0.101873606777693     
          34  0.367133512653195     
          35 -3.540169272766584E-002
          36 -1.265578343302833E-002
          37  3.457994689919154E-003
          38 -5.249318220005820E-003
Sym=    11a
Ene=  -0.344194876025368     
Spin= Alpha
Occup=     2.00000000
           1 -1.625492926080330E-002
           2  0.212523395204490     
           3 -0.304224554867527     
           4 -0.137951161392537     
           5  9.793695274804394E-003
           6 -4.552262296258616E-002
           7  8.630849240672887E-002
           8  4.071544399930297E-002
           9  2.671996254814389E-002
          10 -2.784974811911908E-002
          11  1.129785570975196E-003
          12  2.128561413691391E-002
          13  5.753575156308648E-002
          14 -0.126136645716565     
          15  1.314372093528756E-002
          16  0.200426531985224     
          17 -0.390708094353521     
          18 -0.216178786205943     
          19  0.164457192919373     
          20  4.682102889473323E-002
          21  6.679401014782448E-003
          22 -1.508888572840267E-002
          23 -9.085034603792260E-003
          24  0.195468955812096     
          25 -0.370657132511770     
          26 -0.117511080780114     
          27 -0.322008594959968     
          28 -2.391220559874120E-002
          29  5.519027393190774E-002
          30  3.368195645687760E-002
          31 -1.465892367972737E-002
          32  0.134382278007869     
          33 -0.339695092623406     
          34 -0.124433214333218     
          35  0.179313092654314     
          36 -3.473275721189146E-002
          37 -3.681930761473996E-002
          38 -2.380887536535072E-003
Sym=    12a
Ene=  -0.341347433013038     
Spin= Alpha
Occup=     2.00000000
           1  2.319425873106414E-002
           2 -0.445364816943073     
           3 -0.148334513273939     
           4  9.621030279329457E-002
           5  7.167558790338387E-004
           6  9.390569850522687E-002
           7  5.442118735346971E-002
           8 -1.157107176062003E-002
           9  4.559660063549967E-002
          10 -2.102449427051771E-002
          11 -2.457210636498196E-002
          12 -9.831368236771356E-003
          13  0.121532215959894     
          14  6.304779282803120E-002
          15  2.705819646978840E-004
          16 -0.304660780218310     
          17 -0.180866589607074     
          18  3.629110339786397E-002
          19  0.255210333865504     
          20  7.450072320811118E-003
          21  4.292165001703342E-002
          22  2.921794297989815E-002
          23 -8.813701423210567E-004
          24 -0.351848150473007     
          25 -0.209042601405702     
          26  4.369022105998005E-002
          27 -9.006435069565411E-003
          28 -4.627864550993979E-002
          29 -2.411396516561130E-002
          30  7.184899588851115E-003
          31 -2.349084333265290E-002
          32 -0.368524378798274     
          33 -0.316033328601756     
          34  8.470518152105018E-003
          35 -0.246026564810754     
          36  3.204448950015142E-002
          37 -2.187669838480131E-002
          38 -3.520730865546375E-002
Sym=    13a
Ene=  -0.330300397990261     
Spin= Alpha
Occup=     2.00000000
           1 -4.012230001913963E-002
           2 -3.775276892133717E-002
           3  7.189859015541636E-002
           4 -0.448963367121252     
           5 -3.302002285808643E-004
           6  2.944144046454053E-002
           7 -3.142717029327102E-002
           8  8.795312793382939E-002
           9  6.305107098958961E-002
          10 -5.952225286497725E-002
          11 -3.528818124612356E-003
          12  0.110635963330985     
          13 -2.582033494071191E-002
          14  2.236915507681938E-002
          15  1.720977879284402E-002
          16 -0.125071725348845     
          17  0.118815411743812     
          18 -0.480254629156821     
          19 -5.668881997583624E-003
          20  1.596768109887524E-003
          21  1.356428950135902E-002
          22 -5.001939177072511E-002
          23  5.300323972857742E-002
          24 -0.172774541226708     
          25  0.241707267689791     
          26 -0.339371416665808     
          27  3.709030197807007E-002
          28 -2.790122433351638E-002
          29  3.628231349030760E-002
          30 -6.368443393265626E-002
          31 -4.216445846439139E-002
          32 -0.138960903922941     
          33  1.604495990959086E-002
          34 -0.430385896680109     
          35 -6.552067670018992E-003
          36 -2.343558972700868E-002
          37  7.735466669023043E-004
          38 -4.865812858793639E-002
Sym=    14a
Ene=  -0.319394942584407     
Spin= Alpha
Occup=     1.99999990
           1  3.798338158766700E-004
           2 -9.534297119380772E-002
           3 -0.453657179866929     
           4 -0.346052935903795     
           5  6.350965110324466E-005
           6 -5.436563368606643E-003
           7 -2.338095870685483E-003
           8 -3.889936603966127E-005
           9 -1.274069090541254E-003
          10  3.885072896205329E-003
          11 -2.611003805664076E-003
          12  1.835211236212680E-003
          13  1.280075506656590E-002
          14  6.810569365539038E-003
          15  3.561902155796833E-004
          16  0.506636473907720     
          17  0.281895451633543     
          18 -6.967907248159669E-002
          19  1.277604324852548E-003
          20 -1.979102881816398E-002
          21  1.078429089920016E-002
          22  2.134889196162697E-002
          23 -1.865157490424491E-004
          24 -0.109254130410808     
          25 -4.893587398347237E-002
          26  3.266825893395325E-002
          27 -6.640079889729600E-004
          28  2.411605478643667E-002
          29  1.215984270629612E-002
          30 -2.906581113395589E-003
          31  1.012594633654352E-003
          32 -0.348706007538650     
          33  0.193820415513022     
          34  0.409357681929805     
          35 -4.708817810830345E-003
          36 -5.593887754924134E-003
          37 -2.441052589770169E-002
          38 -1.671018022243356E-002
Sym=    15a
Ene=  -0.316488873031219     
Spin= Alpha
Occup=     1.99999794
           1  1.068880235704676E-002
           2  0.183528072098102     
           3 -0.322066977255784     
           4  7.464763757763625E-002
           5  2.408969515405720E-003
           6 -5.381649423338796E-003
           7  8.726704530104264E-003
           8 -7.961139347956146E-003
           9 -9.460967058375975E-003
          10  1.514305191545286E-002
          11 -5.682084857076880E-003
          12 -2.179230016995981E-002
          13  1.140782888959490E-003
          14  8.317951100813647E-004
          15 -1.753284955514682E-003
          16 -0.213028540473547     
          17  0.282359348030252     
          18 -0.397057080151586     
          19  1.100522608736049E-003
          20  1.293531784272900E-003
          21  3.556373130495555E-003
          22  1.506882501147887E-002
          23  6.206791017565566E-004
          24 -9.871354278299098E-002
          25  0.280946520801786     
          26  0.602933248920989     
          27 -4.466658280375858E-002
          28 -2.259957055768389E-003
          29  3.431862928915887E-003
          30 -9.069737618947488E-004
          31  1.120075880456057E-002
          32  0.200270346755520     
          33 -0.309086566601256     
          34  2.593975593195318E-002
          35 -1.719634977812706E-003
          36  1.129660830122585E-003
          37  2.266637342940456E-003
          38  1.598632596374119E-002
Sym=    16a
Ene=  -0.313634236570811     
Spin= Alpha
Occup=     1.99995847
           1  3.967525135498026E-003
           2 -0.394108667752081     
           3  0.189633323559523     
           4 -0.315959580489279     
           5  1.955500821113762E-005
           6 -3.723808579682655E-003
           7 -1.541281989052973E-003
           8 -4.297099342384117E-005
           9 -3.555758928590736E-003
          10  2.347284169141963E-003
          11  1.208474759448774E-003
          12 -5.960165585096145E-004
          13 -5.282736727849806E-003
          14 -3.685255784956010E-003
          15 -3.331035656938226E-004
          16 -8.037097706372402E-002
          17 -3.066147836191432E-002
          18 -2.398007737420517E-003
          19 -3.006653290704177E-002
          20 -7.463212316456984E-003
          21 -9.621676523767513E-003
          22 -3.186347343745106E-003
          23 -3.280206934264889E-004
          24  0.556191569195570     
          25  0.304683796388878     
          26 -4.391563710119259E-002
          27 -2.472571351390734E-003
          28  3.107964007215911E-004
          29  1.078714755859392E-004
          30  8.291607448183060E-004
          31 -2.844613540977444E-003
          32  1.429144355309867E-002
          33 -0.422542699986730     
          34  0.371650514656086     
          35  3.129744514266451E-002
          36 -1.141805068584963E-002
          37 -2.499989625470522E-004
          38  6.772469688140423E-003
Sym=    17a
Ene=  -0.293195177603715     
Spin= Alpha
Occup=     0.00004368
           1  0.120718757403195     
           2 -2.401333629112856E-002
           3  8.786242382069894E-003
           4 -2.485387533971088E-002
           5 -1.205749914159978E-002
           6 -7.651647414572766E-003
           7  1.694827943016983E-002
           8  3.526807864766702E-003
           9  1.397485060289282E-002
          10  1.434129819489139E-002
          11 -2.831614879778421E-002
          12  3.727512298128156E-003
          13 -1.476394086145905E-002
          14  1.413254075348555E-002
          15  0.145443927044420     
          16  2.045297358824840E-002
          17 -3.947189443501535E-002
          18  2.503282613768866E-003
          19 -0.527576965097456     
          20  0.105420534098783     
          21  0.170936159780641     
          22  2.431128540974944E-002
          23  0.114937271967949     
          24  7.647907578259772E-004
          25  3.213096341391633E-004
          26 -1.170589033251396E-003
          27 -0.573024431660388     
          28  8.417951828063232E-002
          29 -0.172412612476068     
          30 -7.856040671402835E-002
          31  0.119567950984336     
          32  1.711548294903833E-003
          33  2.126140488782540E-002
          34 -2.965028906182359E-002
          35 -0.528609007784803     
          36 -0.191495824705465     
          37  7.996606625574649E-003
          38  6.425658897727207E-002
Sym=    18a