6
 energy: -15.143391665299 gnorm: 0.000604716455 xtb: 6.7.1 (edcfbbe)
O            0.20304837377703        1.03781480358340       -0.27062374149994
C           -0.07399615819022       -0.17750305111616       -0.22533588814060
O           -1.38141161490939       -0.51514083504228       -0.15145079067550
O            0.75466325148198       -1.09326449247749       -0.24126872262360
K            2.38642357544372        0.44230098665116       -0.32338037573690
H           -1.88872742760313        0.30579258840140       -0.14987966323426
