[Molden Format]
[Title]
[Atoms] AU
O      1     8 -0.24265730755831E-01  0.18888152036046E+01 -0.71890829357703E-01
C      2     6 -0.44713250348134E-02 -0.57498388983870E+00  0.21594843991652E-01
O      3     8 -0.20832269780604E+01 -0.17381667170904E+01  0.65853235457828E-01
Na     4    11 -0.42919437873615E+01  0.10608209820336E+01 -0.40701000375047E-01
O      5     8  0.20914371473847E+01 -0.17081897515852E+01  0.64998985324385E-01
Na     6    11  0.43124706738278E+01  0.10717041728761E+01 -0.39855235041115E-01
[GTO]
           1 0
 s           4   1.00000000000000     
   69.1379619061966      -0.204787563700778     
   11.9061291327073      -0.249970231368273     
  0.956708277443407       0.400258802406396     
  0.364625204960737       0.159522066676936     
 p           4   1.00000000000000     
   8.21241932577816        1.13215567991868     
   2.12935769970981        1.04768407822548     
  0.750664482023609       0.549565082171590     
  0.298852465432831       8.290848659276662E-002
 
           2 0
 s           4   1.00000000000000     
   51.0493630955799      -0.163120632101274     
   8.79112274068875      -0.199110245810007     
  0.706404222589298       0.318820477536558     
  0.269228134134116       0.127065041842404     
 p           4   1.00000000000000     
   5.82636561408000       0.737164515452096     
   1.51068960187200       0.682163716148503     
  0.532564832880000       0.357830539292537     
  0.212023236906000       5.398303027584788E-002
 
           3 0
 s           4   1.00000000000000     
   69.1379619061966      -0.204787563700778     
   11.9061291327073      -0.249970231368273     
  0.956708277443407       0.400258802406396     
  0.364625204960737       0.159522066676936     
 p           4   1.00000000000000     
   8.21241932577816        1.13215567991868     
   2.12935769970981        1.04768407822548     
  0.750664482023609       0.549565082171590     
  0.298852465432831       8.290848659276662E-002
 
           4 0
 s           4   1.00000000000000     
  0.882794627587373      -2.139073406984328E-002
  0.248661564932587      -4.327968176218863E-002
  4.458888535438117E-002  5.199503858098165E-002
  2.193791359666633E-002  1.458330453394601E-002
 p           4   1.00000000000000     
  0.609627812148130      -1.101274864471000E-002
  6.299891376469492E-002  1.239527058613037E-002
  2.847335657736565E-002  9.747719223638873E-003
  1.376464886513083E-002  1.441521337540452E-003
 
           5 0
 s           4   1.00000000000000     
   69.1379619061966      -0.204787563700778     
   11.9061291327073      -0.249970231368273     
  0.956708277443407       0.400258802406396     
  0.364625204960737       0.159522066676936     
 p           4   1.00000000000000     
   8.21241932577816        1.13215567991868     
   2.12935769970981        1.04768407822548     
  0.750664482023609       0.549565082171590     
  0.298852465432831       8.290848659276662E-002
 
           6 0
 s           4   1.00000000000000     
  0.882794627587373      -2.139073406984328E-002
  0.248661564932587      -4.327968176218863E-002
  4.458888535438117E-002  5.199503858098165E-002
  2.193791359666633E-002  1.458330453394601E-002
 p           4   1.00000000000000     
  0.609627812148130      -1.101274864471000E-002
  6.299891376469492E-002  1.239527058613037E-002
  2.847335657736565E-002  9.747719223638873E-003
  1.376464886513083E-002  1.441521337540452E-003
 
[MO]
Sym=     1a
Ene=  -0.637525084867192     
Spin= Alpha
Occup=     2.00000000
           1  0.480385518068397     
           2  1.500880096507275E-003
           3 -0.105535882679187     
           4  4.008740623412449E-003
           5  0.418038277706751     
           6  1.959798075347971E-003
           7  5.097083027981175E-002
           8 -1.906438387442206E-003
           9  0.311551353958803     
          10  8.681161445962836E-002
          11  6.783013781577076E-002
          12 -2.575395534434308E-003
          13 -1.342198095044692E-002
          14  1.556620096778398E-002
          15 -1.058870928226785E-004
          16  5.621422742687233E-006
          17  0.320338401808772     
          18 -8.786591390532784E-002
          19  6.738642099269353E-002
          20 -2.569984531863386E-003
          21 -1.354935971227576E-002
          22 -1.569761861219341E-002
          23 -5.532809918405640E-004
          24  1.707729216663740E-005
Sym=     2a
Ene=  -0.627779129851550     
Spin= Alpha
Occup=     2.00000000
           1  4.724938882318613E-002
           2 -7.609560759267496E-002
           3 -1.142344106968562E-003
           4  3.710033045759112E-005
           5 -3.208959579308587E-003
           6 -0.315935622893534     
           7  1.964060762018311E-002
           8 -7.692278600215260E-004
           9  0.523303870455540     
          10 -3.379489515655608E-003
          11  5.886372169175071E-002
          12 -2.247580100652059E-003
          13  4.575863266324020E-002
          14  2.876463410805230E-002
          15 -1.812500481989092E-002
          16  6.917173915727521E-004
          17 -0.573324547319087     
          18  4.454031459079017E-003
          19 -5.331731871272550E-002
          20  2.035349157057163E-003
          21 -4.525282646323921E-002
          22  2.694132865752225E-002
          23  1.987092820156417E-002
          24 -7.488709866212621E-004
Sym=     3a
Ene=  -0.626169233657226     
Spin= Alpha
Occup=     2.00000000
           1 -0.603085828853318     
           2 -5.774174889323153E-003
           3 -6.707491794650309E-003
           4  2.616846251089664E-004
           5  9.390622930110876E-002
           6 -2.096526236228124E-002
           7 -0.299461661058693     
           8  1.138898151381446E-002
           9  0.410911629546909     
          10  6.305512696163737E-002
          11 -2.565913980636990E-002
          12  9.728411924056674E-004
          13 -3.270803892140304E-003
          14 -1.094709989176577E-002
          15 -1.264602258033416E-002
          16  4.802578873625986E-004
          17  0.331286717306409     
          18 -6.250891726577733E-002
          19 -3.493207507340271E-002
          20  1.318744509575809E-003
          21 -8.422103359780567E-003
          22  1.426789843629238E-002
          23 -9.652942879547212E-003
          24  3.687506109420797E-004
Sym=     4a
Ene=  -0.533675786402273     
Spin= Alpha
Occup=     2.00000000
           1 -0.345363990556870     
           2  3.607393679214927E-003
           3 -0.369032494578485     
           4  1.399794348317860E-002
           5  0.367280590639137     
           6  9.891280821041418E-004
           7  4.010704484519198E-002
           8 -1.534570119384663E-003
           9 -0.371691996721854     
          10  0.296745986960152     
          11  0.168996179214029     
          12 -6.431585449951087E-003
          13 -5.684346896138041E-002
          14 -3.134046483603613E-002
          15  1.223196359041531E-002
          16 -4.707705591812021E-004
          17 -0.372084697729142     
          18 -0.301036612161095     
          19  0.166334201296473     
          20 -6.372748448042135E-003
          21 -5.596463815238564E-002
          22  3.089413256721530E-002
          23  1.293585160388633E-002
          24 -4.814562191586412E-004
Sym=     5a
Ene=  -0.492121427935182     
Spin= Alpha
Occup=     2.00000000
           1 -3.838311106746337E-005
           2 -2.720644390216516E-005
           3  1.424517165140730E-002
           4  0.376397123873742     
           5 -3.893241373607274E-005
           6 -4.417439756810445E-005
           7  2.043188655579786E-002
           8  0.536859280979105     
           9 -1.029571915531580E-005
          10 -7.940726268217294E-006
          11  1.480821234938854E-002
          12  0.388726953645403     
          13 -1.333111914147692E-005
          14 -1.084268268205196E-005
          15  1.245120677205379E-003
          16  3.273566882786644E-002
          17 -8.309852698935666E-006
          18 -3.371734363686108E-005
          19  1.484266823910291E-002
          20  0.389869392035051     
          21  1.118161791136307E-005
          22 -8.940383063585168E-006
          23  1.230850453105443E-003
          24  3.252839004923466E-002
Sym=     6a
Ene=  -0.486697944856383     
Spin= Alpha
Occup=     2.00000000
           1 -0.329992864748768     
           2 -8.719299326037960E-005
           3 -0.477491646241962     
           4  1.807779716578952E-002
           5 -1.187219941836869E-002
           6 -7.832685339080424E-003
           7  0.375225895248103     
           8 -1.429485092977071E-002
           9  0.180833278495996     
          10 -0.363358909344118     
          11  0.141878196811587     
          12 -5.415401043885668E-003
          13  1.711965750097640E-002
          14 -3.127224654361292E-002
          15 -4.545775408692449E-002
          16  1.724652898818479E-003
          17  0.188175976234986     
          18  0.370600866331134     
          19  0.138594388109515     
          20 -5.235991055686839E-003
          21  2.214866241629011E-002
          22  2.972710327133912E-002
          23 -4.606290938019842E-002
          24  1.747864657846840E-003
Sym=     7a
Ene=  -0.480348010657062     
Spin= Alpha
Occup=     2.00000000
           1 -3.692476261391300E-003
           2  0.339941747316385     
           3 -2.329263529885679E-003
           4  1.187728140330643E-004
           5 -1.080181045296987E-003
           6  0.361936031437896     
           7  7.355381802700216E-003
           8 -2.467913219732826E-004
           9  0.311850526885050     
          10 -0.312919430661658     
          11 -0.346642711647244     
          12  1.321147028775533E-002
          13  5.597160512199891E-002
          14  1.012110636210463E-002
          15 -6.904311128663929E-002
          16  2.628301881373753E-003
          17 -0.304651488617175     
          18 -0.306684274740309     
          19  0.345844762189122     
          20 -1.321381514910118E-002
          21 -5.577733887224431E-002
          22  1.038802290526002E-002
          23  6.808251868042609E-002
          24 -2.584001314772648E-003
Sym=     8a
Ene=  -0.378604523247556     
Spin= Alpha
Occup=     2.00000000
           1 -6.702437776888387E-004
           2 -0.726736956672025     
           3 -5.345080622534592E-003
           4  1.127163707875863E-004
           5 -2.508240503325721E-004
           6  0.141628777406754     
           7  1.275898181846667E-003
           8 -3.151838158495029E-005
           9 -5.528285138115674E-002
          10 -0.397495113990058     
          11  7.486500123963491E-002
          12 -2.437114199742862E-003
          13  0.271294383212928     
          14  4.215286092971587E-002
          15 -3.029524682243391E-003
          16  1.548336033215724E-004
          17  5.639953054642639E-002
          18 -0.394498683745593     
          19 -7.690609357095685E-002
          20  2.508658545317476E-003
          21 -0.272344118341571     
          22  4.369734685652263E-002
          23  2.089729338666637E-003
          24 -9.446498776899932E-005
Sym=     9a
Ene=  -0.373557659501341     
Spin= Alpha
Occup=     2.00000000
           1  1.262882106644082E-005
           2  4.291091103446992E-005
           3 -3.168295455051054E-002
           4 -0.832765589934987     
           5 -2.643914613993215E-006
           6  2.458353411625683E-006
           7  9.137946855003405E-004
           8  2.333751096498683E-002
           9  9.962268649378968E-006
          10  3.606798692901679E-005
          11  1.129363510418700E-002
          12  0.301351129801442     
          13 -1.763375568413680E-005
          14  8.674043217794756E-006
          15 -9.969850485538681E-004
          16 -2.606090051711631E-002
          17  9.176042225638981E-006
          18 -1.040112326484424E-004
          19  1.782965202944050E-002
          20  0.472563120954926     
          21 -3.997501139060295E-005
          22  3.140449816613145E-006
          23 -2.644630690541923E-004
          24 -6.434083129131261E-003
Sym=    10a
Ene=  -0.372418979751314     
Spin= Alpha
Occup=     2.00000000
           1 -2.669951814244433E-006
           2 -4.065428413954359E-004
           3  3.891110354797624E-003
           4  0.102248630896132     
           5  3.683585830292850E-007
           6  8.458742793261751E-005
           7 -1.464462808603668E-004
           8 -3.744821386001807E-003
           9 -4.101117083118330E-005
          10 -2.298561553138032E-004
          11 -2.833716641685680E-002
          12 -0.745734463514983     
          13  1.681315202975897E-004
          14  2.453371021663808E-005
          15 -2.697922890866638E-003
          16 -7.088378773449815E-002
          17  3.383115285461953E-005
          18 -3.097665619600640E-004
          19  2.476144892952158E-002
          20  0.650547441827710     
          21 -1.389759949814606E-004
          22  1.491519605467065E-005
          23  2.870187255718231E-003
          24  7.544453513968022E-002
Sym=    11a
Ene=  -0.359696747996806     
Spin= Alpha
Occup=     2.00000000
           1 -7.027794727943930E-002
           2 -9.857930656391475E-003
           3  0.413230704299273     
           4 -1.589931383888297E-002
           5  3.632554116768309E-003
           6  6.073706772751170E-005
           7 -0.122009385996315     
           8  4.643045140115144E-003
           9 -2.409086941920084E-002
          10 -9.561594207619133E-002
          11  0.609524770172228     
          12 -2.308369119543295E-002
          13  0.108003252900729     
          14 -6.974257473693533E-003
          15  5.724280914276687E-002
          16 -2.177904086947382E-003
          17 -2.456361109859371E-002
          18  0.100718598342676     
          19  0.628926644418560     
          20 -2.381928586152850E-002
          21  0.107897435844219     
          22  7.144992991905366E-003
          23  5.681975693972692E-002
          24 -2.169254237949931E-003
Sym=    12a
Ene=  -0.349663037384183     
Spin= Alpha
Occup=     2.00000000
           1  1.448319418931125E-003
           2 -0.494582180932533     
           3 -1.090114210122422E-002
           4  3.960443255811345E-004
           5  7.201083372334481E-005
           6 -7.494600151389454E-003
           7  1.851739628615733E-003
           8 -7.131362762321092E-005
           9  2.512267019793169E-002
          10  0.339515876188414     
          11 -0.545099907891688     
          12  2.075083482349919E-002
          13 -8.463989315467888E-003
          14  2.044588165788172E-002
          15  3.374608497505312E-002
          16 -1.278573822543742E-003
          17 -2.422459259733404E-002
          18  0.328393200111807     
          19  0.529115892433247     
          20 -2.011170897183050E-002
          21  3.939606826600000E-003
          22  2.005459350014164E-002
          23 -3.539987208513809E-002
          24  1.343083026493058E-003
Sym=    13a
Ene=  -0.284329150053402     
Spin= Alpha
Occup=     0.00000000
           1 -0.156639703275914     
           2 -4.254613017104112E-003
           3 -9.548918752177754E-002
           4  3.628206678788179E-003
           5  1.267763161567767E-002
           6  7.161647966582635E-004
           7 -1.438765978467525E-003
           8  2.620318633396095E-005
           9 -0.135740716832164     
          10  5.448032675840434E-002
          11 -0.122691566058304     
          12  4.696119860120371E-003
          13  0.656650743922231     
          14 -0.201622284060386     
          15  6.303741616682142E-002
          16 -2.406251991380001E-003
          17 -0.139424816096731     
          18 -5.915373292859373E-002
          19 -0.123433526729144     
          20  4.689295099883866E-003
          21  0.676505148867598     
          22  0.206124894782588     
          23  6.634429140193129E-002
          24 -2.462744432527190E-003
Sym=    14a
Ene=  -0.243794204517852     
Spin= Alpha
Occup=     0.00000000
           1 -5.168556526671787E-003
           2  0.255273489401217     
           3 -8.763308389379723E-004
           4  6.227166657803336E-005
           5  2.346152998946865E-004
           6 -1.219933840931622E-002
           7  1.607233292691948E-004
           8  6.893000005409877E-006
           9 -9.844288916072273E-002
          10  0.181662874172317     
          11 -3.105026821480720E-002
          12  1.188438424159582E-003
          13  0.677669116456260     
          14 -0.206508251429449     
          15  9.306304201065585E-002
          16 -3.560360066493659E-003
          17  9.431525542345034E-002
          18  0.180376179169362     
          19  2.835103142720458E-002
          20 -1.057853885169768E-003
          21 -0.657973043555720     
          22 -0.199829425586490     
          23 -9.169270582672590E-002
          24  3.435421482352736E-003
Sym=    15a
Ene=  -0.121169514417297     
Spin= Alpha
Occup=     0.00000000
           1 -2.907039293492665E-005
           2 -9.012753835536116E-006
           3  1.046480420068535E-002
           4  0.274782755793276     
           5  1.006392745363424E-004
           6  5.570225877768525E-005
           7 -3.061240505021592E-002
           8 -0.805432683302079     
           9 -1.614310498662377E-005
          10 -3.140866136135268E-005
          11  1.333994212123473E-002
          12  0.351005344346436     
          13 -3.709720182760236E-005
          14  3.374858465927828E-005
          15  1.351790095452808E-002
          16  0.355594194583548     
          17 -1.174831411008923E-005
          18 -2.147417258356031E-006
          19  1.326515601053363E-002
          20  0.348887889139809     
          21 -4.025869661784388E-005
          22 -1.487098756739627E-004
          23  1.370929650686979E-002
          24  0.361681128199915     
Sym=    16a
Ene=  -7.658451150592964E-002
Spin= Alpha
Occup=     0.00000000
           1  6.036427757373052E-006
           2  3.470150146010810E-005
           3 -1.301045870965409E-002
           4 -0.341948814341102     
           5 -6.795919644030134E-005
           6 -2.850112366507146E-005
           7  1.644117520788358E-002
           8  0.432445833354408     
           9  1.283971623009654E-005
          10  3.204564631033970E-005
          11 -1.261244710938536E-002
          12 -0.331879469721309     
          13 -1.603613082919466E-005
          14 -3.649406699968839E-005
          15  1.840287549086603E-002
          16  0.483321438852897     
          17  1.800399866302262E-005
          18  3.154289766604001E-005
          19 -1.278758660879669E-002
          20 -0.336673792204161     
          21 -3.218516008076380E-006
          22 -1.293392920339668E-004
          23  1.960916727826991E-002
          24  0.516385596590434     
Sym=    17a
Ene=  -5.141846267264992E-002
Spin= Alpha
Occup=     0.00000000
           1 -1.715029860182750E-005
           2 -2.658984615942142E-005
           3 -3.050242286907990E-004
           4 -7.547566071638953E-003
           5  3.202134053904842E-006
           6 -1.199300269093882E-005
           7  1.719583751349654E-004
           8  4.571469208711204E-003
           9  1.807855593812594E-007
          10 -7.781927945503627E-007
          11 -4.641008494440432E-003
          12 -0.121751281723825     
          13 -4.409177858029691E-006
          14 -1.004981102947677E-004
          15  3.369402253186835E-002
          16  0.886675528554845     
          17  6.750479475593428E-006
          18 -2.629418986527218E-005
          19  4.251896161429269E-003
          20  0.112323030876227     
          21 -7.750579592594774E-006
          22  1.118649865545917E-004
          23 -3.274558477612350E-002
          24 -0.865107219494924     
Sym=    18a
Ene=  -2.747587376154461E-002
Spin= Alpha
Occup=     0.00000000
           1 -0.255393170375998     
           2 -2.572732588031356E-003
           3 -0.133059762084405     
           4  5.051641314026072E-003
           5 -4.044473715526264E-002
           6 -2.267117850980853E-003
           7  4.342784270456011E-002
           8 -1.636976420842423E-003
           9  9.076524971289074E-002
          10 -3.000844441139413E-002
          11 -8.327482900232325E-002
          12  3.168616483112324E-003
          13 -8.332790332173040E-002
          14  0.348790869900890     
          15  0.508069166660648     
          16 -1.939447454535735E-002
          17  9.660448722721396E-002
          18  3.251508524427394E-002
          19 -8.461581598812888E-002
          20  3.216112209252389E-003
          21 -8.064369999519254E-002
          22 -0.359605084887352     
          23  0.542831718970914     
          24 -2.063116591597631E-002
Sym=    19a
Ene=   3.405319480272542E-002
Spin= Alpha
Occup=     0.00000000
           1  8.736763652178393E-003
           2 -5.651643300474605E-002
           3  2.138493376808338E-003
           4 -9.662001442863608E-005
           5 -8.594479406566256E-004
           6 -6.105940685891061E-002
           7 -2.653828173613911E-003
           8  9.615480183362301E-005
           9 -0.184773506683315     
          10  9.199047388599149E-002
          11  6.146907642435965E-003
          12 -2.119709049576741E-004
          13  6.587499814332758E-003
          14 -0.128396514597391     
          15 -0.889726139293021     
          16  3.375030735266953E-002
          17  0.181488537818679     
          18  8.934835395412841E-002
          19 -2.551877993013566E-003
          20  1.053617624750782E-004
          21 -3.577430501008778E-003
          22 -0.112429555066514     
          23  0.869395733122014     
          24 -3.296922620321004E-002
Sym=    20a
Ene=   0.137886416497152     
Spin= Alpha
Occup=     0.00000000
           1  0.348203341187482     
           2  3.380740151185307E-003
           3 -0.131181052504264     
           4  5.017004720880325E-003
           5 -8.870205968839601E-002
           6  3.428133610794320E-004
           7 -2.880500008058286E-002
           8  9.761533354446349E-004
           9  0.325637257730372     
          10  7.712720832966526E-002
          11  4.601256098902493E-002
          12 -1.700161714978106E-003
          13 -4.922791053042894E-002
          14 -0.552687613000124     
          15  0.325706741658307     
          16 -1.241389012419068E-002
          17  0.326989351313182     
          18 -7.723218331900424E-002
          19  4.543292390529962E-002
          20 -1.695714856642575E-003
          21 -5.347738888771954E-002
          22  0.559324734167798     
          23  0.321490771267176     
          24 -1.204267438798665E-002
Sym=    21a
Ene=   0.352117172564722     
Spin= Alpha
Occup=     0.00000000
           1  0.352931472119220     
           2  4.643670052760457E-003
           3 -0.678117904097158     
           4  2.575737736477614E-002
           5  -1.19112188559733     
           6 -4.769998670691498E-005
           7 -0.309787348841305     
           8  1.163655049645339E-002
           9  0.165831657795243     
          10  0.352466222517555     
          11  0.272939070882518     
          12 -1.034632054916382E-002
          13  7.137664882511884E-002
          14  0.164012898266925     
          15 -8.834229335546344E-002
          16  3.366241686893456E-003
          17  0.164935208294313     
          18 -0.359227669657816     
          19  0.269123489796271     
          20 -1.024895482584408E-002
          21  8.020628743761307E-002
          22 -0.175688851892919     
          23 -9.201341377474959E-002
          24  3.443239607944994E-003
Sym=    22a
Ene=   0.520804445528498     
Spin= Alpha
Occup=     0.00000000
           1 -0.467546486307348     
           2 -3.478237446166153E-003
           3  0.530814248267068     
           4 -2.011281734744340E-002
           5 -0.351905932583561     
           6 -1.044056152731501E-002
           7   1.16591351492775     
           8 -4.436484897230430E-002
           9  0.361484541071567     
          10  0.535111785675927     
          11  2.258407476288500E-002
          12 -8.592566559978706E-004
          13  2.478107924376532E-002
          14  8.830242282515955E-004
          15 -6.462282164112230E-002
          16  2.461495457906050E-003
          17  0.364173195277799     
          18 -0.535975983991195     
          19  1.635698379220890E-002
          20 -6.956448098549175E-004
          21  2.026615718349980E-002
          22  4.803636981801996E-003
          23 -6.261876745761437E-002
          24  2.372953935181230E-003
Sym=    23a
Ene=   0.576005420390815     
Spin= Alpha
Occup=     0.00000000
           1 -2.695891483531246E-003
           2  0.333247807904561     
           3 -1.161201825384759E-003
           4  7.514359656447356E-005
           5 -2.245649495981673E-003
           6 -0.908887227684273     
           7 -1.067818363195432E-002
           8  3.554863625806190E-004
           9 -0.531328866636938     
          10 -0.307467674198040     
          11 -0.331821231287701     
          12  1.264059488204628E-002
          13  0.655709331063451     
          14  0.794727896123081     
          15 -4.473892101701514E-003
          16  2.842805659999341E-004
          17  0.528583553577559     
          18 -0.309340723367766     
          19  0.327514808882502     
          20 -1.251661618667054E-002
          21 -0.654025686914055     
          22  0.790210913751025     
          23  6.463428376772523E-003
          24 -1.231367753245707E-004
Sym=    24a
Ene=   0.666311967376441     
Spin= Alpha
Occup=     0.00000000
           1 -2.887307527970136E-003
           2  2.224791108934260E-002
           3 -5.396714986856677E-003
           4  2.170458632834113E-004
           5 -7.565977291338303E-003
           6  0.870971084493816     
           7  3.288637181339874E-003
           8 -5.006565777422168E-005
           9  0.178737306029599     
          10  0.387200640675957     
          11  0.258977722204980     
          12 -9.866179938500367E-003
          13  0.944577416232519     
          14   1.06317674079348     
          15 -0.132615491790232     
          16  5.184039760503027E-003
          17 -0.178286842941608     
          18  0.389622280771402     
          19 -0.251613068002778     
          20  9.644536844976685E-003
          21 -0.942585229247822     
          22   1.05758351541056     
          23  0.134720735395617     
          24 -4.939747940135590E-003
