27
 energy: -33.309793319334 gnorm: 0.000310486664 xtb: 6.7.1 (edcfbbe)
C            2.63773921878248        0.07097985900119        0.31653855893920
C            1.90823802716417       -1.26985094196162        0.34303284574317
C            0.90759312317892       -1.45059940483615       -0.80348374638007
C           -0.42743862902366       -0.82205463570198       -0.51189997482376
N           -1.40981908847738       -1.61927184180085       -0.37688237933286
C           -2.71049947001383       -1.09602575071986       -0.05043060994546
C           -2.61684038826307        0.20850721690257        0.73942588635617
C           -1.73067629957566        1.17598690500453       -0.03677129912723
N           -0.48130054867690        0.53815139730264       -0.39910338159974
C            0.66569310699911        1.38680811983499       -0.61357645882818
C            1.71394077295665        1.27130992940794        0.49975988013653
H            3.16619069787394        0.17156105640017       -0.63546089940128
H            3.38875528714606        0.08023627372936        1.11054541338104
H            1.38373311008591       -1.38741363599822        1.29343970384040
H            2.65539467551966       -2.06424041339737        0.27982506102669
H            1.32712059242819       -1.05454728604868       -1.73069702684186
H            0.70917756311996       -2.51271426066258       -0.94655603453013
H           -3.23219789659282       -1.86444597480271        0.52861872960492
H           -3.27727292750882       -0.93748520731292       -0.97668093100793
H           -2.16110936303410        0.00085628412943        1.71014206572499
H           -3.60159985190105        0.64746932040469        0.90090406994177
H           -2.25471856186939        1.51486372869887       -0.94337002975036
H           -1.51314783955796        2.05763898323265        0.57643551550459
H            0.30279680847784        2.41668488615483       -0.66584663057322
H            1.13206336930641        1.15681614703046       -1.57829586954498
H            1.20019854956169        1.19934154080752        1.46090767000085
H            2.31798596189372        2.18143770520107        0.50947987148682
