6
 energy: -14.923137554229 gnorm: 0.000382486158 xtb: 6.7.1 (edcfbbe)
O           -0.01284087172193        0.99951796135750       -0.03804298856912
C           -0.00236612331097       -0.30426837113986        0.01142749931342
O           -1.10239624193098       -0.91979821543694        0.03484803146861
Na          -2.27119884275482        0.56136228854153       -0.02153804185949
O            1.10674087643507       -0.90393508843951        0.03439598176558
Na           2.28206120328363        0.56712142511730       -0.02109048211900
