8
 energy: -14.459942456876 gnorm: 0.000249546942 xtb: 6.7.1 (edcfbbe)
C           -0.96605456854140       -0.04239680778068       -0.01048298325770
C            0.49100243496504        0.31790412642062       -0.03790604944695
O            0.94335709630213        1.41904245831417       -0.19073623088114
O            1.26894086548877       -0.76103134527044        0.13291453319709
H           -1.56977011269771        0.84837606260620       -0.15084323292674
H           -1.20150667133495       -0.50876808951548        0.94303588475583
H           -1.17146136846391       -0.76281769435341       -0.79848028827240
H            2.20549232428202       -0.51030871042099        0.11249836683200
