11
 energy: -16.150108207597 gnorm: 0.000455850579 xtb: 6.7.1 (edcfbbe)
C           -0.03800103730606        1.18571826246730        0.04896711785669
C            1.17624357229635        0.51840778477442        0.02045362839435
C            1.16193110611263       -0.86753553737082       -0.03673525910997
N            0.05071985795008       -1.58257424287866       -0.06535627221060
C           -1.10399802724925       -0.94010745673968       -0.03791578710072
C           -1.20702613562740        0.44207774763771        0.01921195069032
H           -0.07259427890466        2.26510563894942        0.09354307270090
H            2.11017779923014        1.05883311388467        0.04201001462482
H            2.08308403630784       -1.43560379652451       -0.06091818811319
H           -1.98688721159612       -1.56595458050559       -0.06303847408991
H           -2.17364968121350        0.92163306630574        0.03977819635730
