20
 energy: -24.823845305290 gnorm: 0.000227755077 xtb: 6.7.1 (edcfbbe)
C            0.87198066699864        1.30843060143563        0.10891786148547
C           -0.53988105028868        1.28099062075564        0.74282929428122
N           -1.15461956081704       -0.02243917178186        0.51840866029900
C           -0.32323154678918       -1.05637514670194        1.12418723413249
C            1.08863326051624       -1.02893357715430        0.49028278252590
N            1.15461956081564        0.02243918782850       -0.51840866727398
C            0.15718123246479       -0.23833898414022       -1.55006210223999
C           -1.25468254815815       -0.26577349792129       -0.91615507694351
H            1.64469437788039        1.49199947413867        0.85874560681637
H            0.95148286384894        2.08037508132001       -0.65972171033207
H           -1.19187076694657        2.03872194841500        0.30262664729014
H           -0.49866040484726        1.45033718730087        1.82109098507532
H           -0.28387841500799       -0.86693974410474        2.19917157248234
H           -0.81584497234489       -2.01807295731579        0.96451569021440
H            1.32751736313930       -1.97641588895677        0.00218711953024
H            1.85948085651342       -0.82527440286421        1.23683660765786
H            0.40406601344561       -1.19261811970594       -2.02062015759553
H            0.24283207148532        0.54689879757942       -2.30444349003085
H           -1.73929430722426       -1.23426498170492       -1.05828672576398
H           -1.90052469468423        0.50525357357822       -1.34210213161085
