[Molden Format]
[Title]
[Atoms] AU
C      1     6 -0.71811552959938E-01  0.22406827770240E+01  0.92534441861155E-01
C      2     6  0.22227782074853E+01  0.97964873409483E+00  0.38651755920082E-01
C      3     6  0.21957315662302E+01 -0.16394045690063E+01 -0.69419578834811E-01
N      4     7  0.95846640605304E-01 -0.29906318909192E+01 -0.12350545500418E+00
C      5     6 -0.20862539136223E+01 -0.17765456209515E+01 -0.71650453419777E-01
C      6     6 -0.22809488215948E+01  0.83540586882434E+00  0.36305325124417E-01
H      7     1 -0.13718330534412E+00  0.42804293009478E+01  0.17677078826016E+00
H      8     1  0.39876581147993E+01  0.20009045969211E+01  0.79387422132209E-01
H      9     1  0.39364583231907E+01 -0.27128979988967E+01 -0.11511869154204E+00
H     10     1 -0.37546726704274E+01 -0.29592252807505E+01 -0.11912545134391E+00
H     11     1 -0.41076025883620E+01  0.17416340827120E+01  0.75169896846671E-01
[GTO]
           1 0
 s           4   1.00000000000000     
   51.0493630955799      -0.163120632101274     
   8.79112274068875      -0.199110245810007     
  0.706404222589298       0.318820477536558     
  0.269228134134116       0.127065041842404     
 p           4   1.00000000000000     
   5.82636561408000       0.737164515452096     
   1.51068960187200       0.682163716148503     
  0.532564832880000       0.357830539292537     
  0.212023236906000       5.398303027584788E-002
 
           2 0
 s           4   1.00000000000000     
   51.0493630955799      -0.163120632101274     
   8.79112274068875      -0.199110245810007     
  0.706404222589298       0.318820477536558     
  0.269228134134116       0.127065041842404     
 p           4   1.00000000000000     
   5.82636561408000       0.737164515452096     
   1.51068960187200       0.682163716148503     
  0.532564832880000       0.357830539292537     
  0.212023236906000       5.398303027584788E-002
 
           3 0
 s           4   1.00000000000000     
   51.0493630955799      -0.163120632101274     
   8.79112274068875      -0.199110245810007     
  0.706404222589298       0.318820477536558     
  0.269228134134116       0.127065041842404     
 p           4   1.00000000000000     
   5.82636561408000       0.737164515452096     
   1.51068960187200       0.682163716148503     
  0.532564832880000       0.357830539292537     
  0.212023236906000       5.398303027584788E-002
 
           4 0
 s           4   1.00000000000000     
   63.5940244669410      -0.192343884147216     
   10.9514172315237      -0.234781079249537     
  0.879993102573770       0.375937539017009     
  0.335387152965211       0.149828892718628     
 p           4   1.00000000000000     
   7.29650404814951       0.976586663156674     
   1.89187454507126       0.903722267303458     
  0.666944321108241       0.474049584615364     
  0.265522026741309       7.151606771501186E-002
 
           5 0
 s           4   1.00000000000000     
   51.0493630955799      -0.163120632101274     
   8.79112274068875      -0.199110245810007     
  0.706404222589298       0.318820477536558     
  0.269228134134116       0.127065041842404     
 p           4   1.00000000000000     
   5.82636561408000       0.737164515452096     
   1.51068960187200       0.682163716148503     
  0.532564832880000       0.357830539292537     
  0.212023236906000       5.398303027584788E-002
 
           6 0
 s           4   1.00000000000000     
   51.0493630955799      -0.163120632101274     
   8.79112274068875      -0.199110245810007     
  0.706404222589298       0.318820477536558     
  0.269228134134116       0.127065041842404     
 p           4   1.00000000000000     
   5.82636561408000       0.737164515452096     
   1.51068960187200       0.682163716148503     
  0.532564832880000       0.357830539292537     
  0.212023236906000       5.398303027584788E-002
 
           7 0
 s           3   1.00000000000000     
   3.37022769753360       0.273591105889083     
  0.613891182214980       0.264605406538605     
  0.166142911484160       8.246594753408230E-002
 
           8 0
 s           3   1.00000000000000     
   3.37022769753360       0.273591105889083     
  0.613891182214980       0.264605406538605     
  0.166142911484160       8.246594753408230E-002
 
           9 0
 s           3   1.00000000000000     
   3.37022769753360       0.273591105889083     
  0.613891182214980       0.264605406538605     
  0.166142911484160       8.246594753408230E-002
 
          10 0
 s           3   1.00000000000000     
   3.37022769753360       0.273591105889083     
  0.613891182214980       0.264605406538605     
  0.166142911484160       8.246594753408230E-002
 
          11 0
 s           3   1.00000000000000     
   3.37022769753360       0.273591105889083     
  0.613891182214980       0.264605406538605     
  0.166142911484160       8.246594753408230E-002
 
[MO]
Sym=     1a
Ene=  -0.663567750785509     
Spin= Alpha
Occup=     2.00000000
           1  0.252738984282585     
           2  3.279156635104955E-003
           3 -0.102317098359865     
           4 -4.225433624614879E-003
           5  0.247998824429697     
           6 -9.076524773086569E-002
           7 -5.275590440333360E-002
           8 -2.104642676572617E-003
           9  0.271562623177918     
          10 -0.112340515928472     
          11  4.522669921480922E-002
          12  1.956552834337070E-003
          13  0.291983022205393     
          14 -4.779144129256145E-003
          15  0.149120090195908     
          16  6.158277921341146E-003
          17  0.271562623928800     
          18  0.109214164799606     
          19  5.232252917588746E-002
          20  2.071981292820500E-003
          21  0.247998824266276     
          22  9.395718385155691E-002
          23 -4.683971719977829E-002
          24 -2.008401528563857E-003
          25  4.067190376901002E-002
          26  3.812736188061315E-002
          27  3.532049770234515E-002
          28  3.532049779931230E-002
          29  3.812736187286019E-002
Sym=     2a
Ene=  -0.632534360813375     
Spin= Alpha
Occup=     2.00000000
           1 -0.390564607321344     
           2 -1.368012167994831E-003
           3  4.268503013599004E-002
           4  1.762781417953904E-003
           5 -0.211966953363235     
           6  8.888610679347708E-002
           7 -0.100902230066152     
           8 -4.235596698824321E-003
           9  0.167934620461501     
          10 -0.102213561602988     
          11 -0.124407381843853     
          12 -5.052657112710114E-003
          13  0.394182999719061     
          14 -3.055458947930865E-003
          15  9.533715249109198E-002
          16  3.937180018603628E-003
          17  0.167934627319822     
          18  0.109970021112283     
          19 -0.117611683500309     
          20 -4.942110391755475E-003
          21 -0.211966948130959     
          22 -8.224282913648469E-002
          23 -0.106383053890356     
          24 -4.324755021990071E-003
          25 -0.113832328033478     
          26 -6.020807053543122E-002
          27  3.775806537376599E-002
          28  3.775806729472023E-002
          29 -6.020806905165449E-002
Sym=     3a
Ene=  -0.628571417242770     
Spin= Alpha
Occup=     2.00000000
           1 -3.667957649917635E-009
           2  0.159407080311906     
           3  5.105401673922681E-003
           4  8.304981282793908E-005
           5  0.315218936558834     
           6  1.561471874949778E-002
           7 -8.450221351892442E-002
           8 -3.500062664369425E-003
           9  0.343469822731864     
          10  1.410055419517306E-002
          11  6.560714776563820E-002
          12  2.696430537276968E-003
          13  3.495599652001660E-009
          14  0.205037992476296     
          15  6.566843802057548E-003
          16  1.068217889683727E-004
          17 -0.343469819127054     
          18  1.827260881150051E-002
          19 -6.457031985556125E-002
          20 -2.679566871533395E-003
          21 -0.315218940040088     
          22  1.017183240795297E-002
          23  8.532808873826231E-002
          24  3.513493658457803E-003
          25 -1.063473774551578E-009
          26  9.492937500573882E-002
          27  0.102203485186429     
          28 -0.102203484301396     
          29 -9.492937609704746E-002
Sym=     4a
Ene=  -0.591248158530080     
Spin= Alpha
Occup=     2.00000000
           1 -2.637826559266256E-009
           2 -0.250393426852076     
           3 -8.019462402396170E-003
           4 -1.304541976665609E-004
           5 -0.271050472363199     
           6 -4.842753379542827E-003
           7 -0.120968696997617     
           8 -4.988714854678142E-003
           9  0.232013919622274     
          10 -2.197961568219942E-002
          11 -0.178957399729813     
          12 -7.368290016083565E-003
          13 -1.831723904294897E-009
          14  0.316382153954929     
          15  1.013291229153418E-002
          16  1.648291722489281E-004
          17 -0.232013916406349     
          18 -3.339357711084558E-002
          19  0.177183940742849     
          20  7.339434675712657E-003
          21  0.271050474801245     
          22 -1.257871497093724E-002
          23  0.120410728509424     
          24  4.979638183178595E-003
          25 -1.658301023466956E-009
          26 -0.138045576202729     
          27  0.118065769644301     
          28 -0.118065768128013     
          29  0.138045577322105     
Sym=     5a
Ene=  -0.584997574750690     
Spin= Alpha
Occup=     2.00000000
           1 -0.299790492938123     
           2  3.206103217455253E-003
           3 -0.100037610529247     
           4 -4.131297982349536E-003
           5  0.165585738975901     
           6  0.155385751480622     
           7 -0.178234196873456     
           8 -7.480481014210431E-003
           9  0.160766450805370     
          10  0.169954945758132     
          11  0.173228931732140     
          12  7.013358558705083E-003
          13 -0.298977634154120     
          14 -1.703798368618781E-004
          15  5.316148557695580E-003
          16  2.195444683403133E-004
          17  0.160766454729939     
          18 -0.180698632665556     
          19  0.161998390845264     
          20  6.830673678819891E-003
          21  0.165585735152512     
          22 -0.143654361196439     
          23 -0.187811689583069     
          24 -7.636275779261571E-003
          25 -0.172868725388324     
          26  9.008979839759475E-002
          27  9.803147859620469E-002
          28  9.803148066364063E-002
          29  9.008979635269605E-002
Sym=     6a
Ene=  -0.541263186764519     
Spin= Alpha
Occup=     2.00000000
           1 -0.104509288131171     
           2  9.274455470480950E-003
           3 -0.289383960890414     
           4 -1.195082267300762E-002
           5 -2.251834347769792E-002
           6 -0.182553908103047     
           7 -0.120956370026162     
           8 -4.845890255546681E-003
           9 -0.112484417854107     
          10 -0.169190728971225     
          11  0.165640494967610     
          12  6.971773148907365E-003
          13 -0.139179458751523     
          14 -4.389019082177830E-003
          15  0.136947334083634     
          16  5.655569125978173E-003
          17 -0.112484417033424     
          18  0.158237429491063     
          19  0.176127183246522     
          20  7.142346130140460E-003
          21 -2.251834420649751E-002
          22  0.189924630385370     
          23 -0.109026834971893     
          24 -4.651838562196243E-003
          25 -0.254310081094038     
          26 -0.166169656200254     
          27 -0.205470019596502     
          28 -0.205470018824874     
          29 -0.166169656660021     
Sym=     7a
Ene=  -0.516284357595207     
Spin= Alpha
Occup=     2.00000000
           1 -7.774643326518837E-011
           2  0.328125389297200     
           3  1.050901806223257E-002
           4  1.709567218798683E-004
           5  1.918833373251093E-002
           6 -0.141403980633788     
           7  0.295775525435319     
           8  1.232042655967873E-002
           9 -4.345206368538169E-002
          10 -0.181120689697772     
          11 -0.266595497216979     
          12 -1.085781692422657E-002
          13  2.589406649854286E-010
          14  0.344804274959592     
          15  1.104319960791587E-002
          16  1.796443545555845E-004
          17  4.345206485003177E-002
          18 -0.197819944761639     
          19  0.254458996155599     
          20  1.066040041466766E-002
          21 -1.918833426150682E-002
          22 -0.122174835583831     
          23 -0.304217282122954     
          24 -1.245774020365506E-002
          25  7.920202545531343E-010
          26  3.068945209202198E-002
          27 -4.172398350228152E-002
          28  4.172398465787640E-002
          29 -3.068945210267733E-002
Sym=     8a
Ene=  -0.506911218897598     
Spin= Alpha
Occup=     2.00000000
           1  8.693050906615369E-008
           2 -2.014732758717712E-004
           3  1.038320419850818E-002
           4 -0.251581317328801     
           5 -7.798426833356452E-008
           6 -2.167559389349192E-004
           7  1.116635126510532E-002
           8 -0.270557344536350     
           9  6.306060894322658E-008
          10 -2.923711823524935E-004
          11  1.507353895449582E-002
          12 -0.365227436425254     
          13 -9.487617455049644E-008
          14 -3.841720905278460E-004
          15  1.979788252862222E-002
          16 -0.479696131103867     
          17  8.971449767929255E-008
          18 -2.925588794144813E-004
          19  1.507357394146666E-002
          20 -0.365227435720783     
          21 -6.256432176831169E-008
          22 -2.165486476770754E-004
          23  1.116630662484740E-002
          24 -0.270557346611371     
          25  3.959787372915136E-008
          26 -1.132037466746194E-007
          27  1.439844848468371E-007
          28  7.785261881572811E-008
          29 -1.578140474143301E-007
Sym=     9a
Ene=  -0.506677376524779     
Spin= Alpha
Occup=     2.00000000
           1  0.183383390436752     
           2  6.048394877587076E-004
           3 -1.887238124176251E-002
           4 -7.792689389838092E-004
           5 -0.158778495348479     
           6 -0.232422976106545     
           7 -0.128277973840100     
           8 -5.108010213891546E-003
           9  0.158467976617588     
          10  0.196793250902531     
          11 -5.002992184587178E-002
          12 -2.222265016601560E-003
          13 -0.213381319535989     
          14  1.606574038513102E-003
          15 -5.012877207320314E-002
          16 -2.069966903118299E-003
          17  0.158467976735676     
          18 -0.193186142697074     
          19 -6.251996507272665E-002
          20 -2.425419027614660E-003
          21 -0.158778495050399     
          22  0.240160247879522     
          23 -0.113142341844876     
          24 -4.861791881982479E-003
          25  8.001998583395255E-002
          26 -0.301031731339090     
          27  0.238421543791159     
          28  0.238421542224345     
          29 -0.301031732851102     
Sym=    10a
Ene=  -0.488612498147957     
Spin= Alpha
Occup=     2.00000000
           1  6.518539771963225E-010
           2  0.108302180669460     
           3  3.468642941334356E-003
           4  5.639290181095832E-005
           5  6.257844638407214E-002
           6 -0.266320849375185     
           7 -0.196106590768876     
           8 -7.880426164002717E-003
           9  6.645874297340318E-002
          10 -0.240011250104744     
          11  0.199888815123007     
          12  8.441935820765046E-003
          13 -2.912299256267370E-010
          14  8.113851916117720E-002
          15  2.598660576129633E-003
          16  4.222020899003520E-005
          17 -6.645874217036175E-002
          18 -0.226719719947295     
          19 -0.214837013390376     
          20 -8.685166950565596E-003
          21 -6.257844696091101E-002
          22 -0.278331815733986     
          23  0.178662759701174     
          24  7.596603718247678E-003
          25 -3.084819140218578E-011
          26 -0.261520579313058     
          27 -0.234318070995935     
          28  0.234318072892408     
          29  0.261520577353974     
Sym=    11a
Ene=  -0.472528141858520     
Spin= Alpha
Occup=     2.00000000
           1  1.845093553052526E-002
           2  1.414902677624952E-002
           3 -0.441481609385666     
           4 -1.823206909822212E-002
           5  9.127488963904626E-002
           6 -9.051108716539255E-002
           7  0.185741854691490     
           8  7.738370395609993E-003
           9 -8.415366058953720E-002
          10  9.951868021497949E-002
          11 -0.200078468885621     
          12 -8.337300975079615E-003
          13  0.191670872116198     
          14  9.870269942216322E-003
          15 -0.307974736943088     
          16 -1.271856353367078E-002
          17 -8.415366069024964E-002
          18 -8.650312447730835E-002
          19 -0.206036272014926     
          20 -8.434192594444733E-003
          21  9.127488963652616E-002
          22  7.843200949404017E-002
          23  0.191152668649449     
          24  7.826402952502013E-003
          25 -0.424976866252694     
          26  7.056055180513504E-002
          27  0.125899882627658     
          28  0.125899881628304     
          29  7.056055147049864E-002
Sym=    12a
Ene=  -0.440120946736533     
Spin= Alpha
Occup=     2.00000000
           1  1.513139595391025E-010
           2 -0.325176991107340     
           3 -1.041456961980213E-002
           4 -1.698577127413833E-004
           5  8.055066683659748E-003
           6  0.283198336101293     
           7 -4.699098334351283E-002
           8 -2.166452400719864E-003
           9 -3.024399404287732E-003
          10 -0.278964078598657     
          11  2.832689337215074E-002
          12  1.392630856833490E-003
          13  8.922988441012801E-010
          14  0.291951493635530     
          15  9.350444042219439E-003
          16  1.524654244744669E-004
          17  3.024399420177784E-003
          18 -0.276578149330819     
          19 -4.611950137862166E-002
          20 -1.681821723952729E-003
          21 -8.055066415123420E-003
          22  0.279608620051517     
          23  6.501627374517760E-002
          24  2.459138809130097E-003
          25 -1.229519659609055E-010
          26  0.264571544955070     
          27 -0.293473829894252     
          28  0.293473830322396     
          29 -0.264571544818423     
Sym=    13a
Ene=  -0.438251764996597     
Spin= Alpha
Occup=     2.00000000
           1 -3.174382136283436E-009
           2  4.522878998275461E-004
           3 -2.332207020084941E-002
           4  0.565084800213057     
           5  8.730092210880950E-009
           6  2.694511627889040E-004
           7 -1.387555532444519E-002
           8  0.336198693013713     
           9 -3.658659055165627E-009
          10 -1.305625887525518E-004
          11  6.717552454335800E-003
          12 -0.162763285183635     
          13 -1.019944463187349E-009
          14 -4.005730562337756E-004
          15  2.065532766381851E-002
          16 -0.500470998968597     
          17  5.160914100554786E-009
          18 -1.305659716129243E-004
          19  6.717486817795672E-003
          20 -0.162763292845639     
          21 -1.209038649418095E-008
          22  2.694608759650325E-004
          23 -1.387546527983174E-002
          24  0.336198692706364     
          25 -3.113608624798500E-009
          26  2.001133531034108E-007
          27 -2.225460622756026E-007
          28  2.274467937113135E-007
          29 -2.019497131293922E-007
Sym=    14a
Ene=  -0.418985921787169     
Spin= Alpha
Occup=     2.00000000
           1  5.389956524804041E-009
           2  6.204750026904623E-009
           3 -3.683570624494544E-009
           4 -3.073228173443939E-009
           5  7.766563131413604E-009
           6  3.699037265936841E-004
           7 -1.906401585580447E-002
           8  0.461913909395500     
           9  7.652116131349320E-009
          10  3.732840240369861E-004
          11 -1.923664337634564E-002
          12  0.466096743745241     
          13  1.701610727292495E-008
          14 -2.590006311800983E-009
          15 -3.675082835571456E-008
          16  8.465742957431852E-010
          17  1.041220054876377E-008
          18 -3.732871553288225E-004
          19  1.923662696047202E-002
          20 -0.466096741669559     
          21  9.197833408729492E-009
          22 -3.699288031250485E-004
          23  1.906400407568451E-002
          24 -0.461913912851631     
          25 -7.397702277975322E-010
          26 -1.371880742951866E-008
          27 -3.129632714484331E-010
          28 -6.063128878028075E-009
          29 -1.350133997031852E-009
Sym=    15a
Ene=  -0.367906838005045     
Spin= Alpha
Occup=     2.00000000
           1  1.420767376159536E-002
           2  2.676127435539761E-003
           3 -8.350123674617851E-002
           4 -3.448391123377542E-003
           5 -9.252690191152646E-002
           6 -9.227877891088899E-003
           7  0.235561201726004     
           8  9.729446965278806E-003
           9  5.088492190365006E-002
          10 -5.555743979735203E-002
          11 -0.177914600643220     
          12 -7.298346566655791E-003
          13 -0.447960295647927     
          14 -2.396427254108783E-002
          15  0.747739489383110     
          16  3.087972182011092E-002
          17  5.088492180875508E-002
          18  6.683576462464277E-002
          19 -0.173994658125777     
          20 -7.234604922574027E-003
          21 -9.252690239448655E-002
          22 -5.874547094382021E-003
          23  0.235668603295895     
          24  9.731140421034902E-003
          25 -0.143073253336170     
          26  0.105688276592524     
          27  0.147234289277785     
          28  0.147234290650818     
          29  0.105688276064226     
Sym=    16a
Ene=  -0.249923642247875     
Spin= Alpha
Occup=     0.00000000
           1  6.781722162510497E-009
           2 -5.212342872435465E-004
           3  2.686266066955333E-002
           4 -0.650872272198470     
           5 -1.271142818358800E-010
           6  2.368034165906328E-004
           7 -1.220383815473321E-002
           8  0.295694463685940     
           9  3.288244938947900E-009
          10  2.948183102694726E-004
          11 -1.519296690230019E-002
          12  0.368119918328089     
          13  1.312447754788403E-009
          14 -4.903818517963380E-004
          15  2.527202601895109E-002
          16 -0.612332062598396     
          17 -8.374445012110553E-009
          18  2.948219844935580E-004
          19 -1.519294806167422E-002
          20  0.368119903043974     
          21 -5.487257469552565E-009
          22  2.368076870355598E-004
          23 -1.220384148847210E-002
          24  0.295694481023285     
          25 -2.534552975341741E-009
          26 -4.159076948964278E-009
          27 -4.323160311689203E-009
          28  6.893969227756219E-009
          29  7.177374108352704E-009
Sym=    17a
Ene=  -0.238358112963346     
Spin= Alpha
Occup=     0.00000000
           1  9.513500516365171E-009
           2 -2.443753801405450E-009
           3 -5.994992678756113E-009
           4  9.667295571284886E-009
           5 -7.081358030550189E-009
           6 -4.496781477640170E-004
           7  2.317480194872028E-002
           8 -0.561516889870679     
           9  1.474929833579902E-008
          10  4.496316374745850E-004
          11 -2.317157700571648E-002
          12  0.561438492234719     
          13 -1.132545635121934E-008
          14  4.113771201398687E-009
          15  8.148272695202049E-009
          16  1.008250994827007E-008
          17  2.422859013911721E-008
          18 -4.496409093039181E-004
          19  2.317154402399377E-002
          20 -0.561438503832058     
          21 -1.458597751260189E-008
          22  4.496957401047978E-004
          23 -2.317479681239972E-002
          24  0.561516880644990     
          25 -5.644045224697731E-009
          26  2.714630111186001E-009
          27 -1.212863131932210E-008
          28 -1.418339856939093E-008
          29  7.305622882665682E-009
Sym=    18a
Ene=  -0.111702509493920     
Spin= Alpha
Occup=     0.00000000
           1  1.134919876963630E-008
           2 -4.175547625708148E-004
           3  2.151855511294347E-002
           4 -0.521386618767601     
           5  3.916107830969323E-010
           6  4.205442975786143E-004
           7 -2.167319256142218E-002
           8  0.525133399307254     
           9 -7.737674561707298E-009
          10 -3.986507789437127E-004
          11  2.054363381889937E-002
          12 -0.497764548878620     
          13 -3.119079809810934E-009
          14  3.735051706934203E-004
          15 -1.924865969842411E-002
          16  0.466387911850983     
          17  2.558129654130468E-008
          18 -3.986577477095793E-004
          19  2.054361217541213E-002
          20 -0.497764550638049     
          21 -2.012286683029663E-008
          22  4.205556738614557E-004
          23 -2.167319069363835E-002
          24  0.525133399399410     
          25 -6.865175744798998E-009
          26  6.354063955726948E-009
          27  1.297615460155586E-008
          28 -2.705464145796189E-008
          29  1.031960943640291E-008
Sym=    19a
Ene=   0.115216951970433     
Spin= Alpha
Occup=     0.00000000
           1 -0.563433958075303     
           2  1.334265879472490E-002
           3 -0.416321063767947     
           4 -1.719300555289155E-002
           5 -9.407156018390667E-002
           6 -0.238144639877445     
           7 -0.216191789198879     
           8 -8.731908128715568E-003
           9 -0.442566549634277     
          10 -0.244085935107931     
          11  3.865156734756228E-002
          12  1.790710754408816E-003
          13 -4.542645823885095E-003
          14  6.491696804710958E-004
          15 -2.025556067392823E-002
          16 -8.364989659521731E-004
          17 -0.442566553577252     
          18  0.241110426925563     
          19  5.419116939388714E-002
          20  2.043442121345232E-003
          21 -9.407155598191609E-002
          22  0.251499490167747     
          23 -0.200509738775864     
          24 -8.476800503032083E-003
          25  0.734054524436237     
          26  0.340031205690416     
          27  0.476651715798537     
          28  0.476651721647798     
          29  0.340031203542247     
Sym=    20a
Ene=   0.126060874785771     
Spin= Alpha
Occup=     0.00000000
           1 -0.337971181398280     
           2 -6.520865515919690E-003
           3  0.203465855131886     
           4  8.402608442626067E-003
           5  0.621447708918622     
           6  0.158920084921044     
           7  0.216796960203376     
           8  8.820325374814491E-003
           9 -0.402084733908115     
          10  8.838034094593293E-003
          11  9.736952116558341E-002
          12  4.011544789205307E-003
          13  0.316154043682821     
          14 -8.964057017020277E-003
          15  0.279699089057571     
          16  1.155086150042020E-002
          17 -0.402084732080305     
          18 -1.505467677476626E-002
          19  9.660430420772471E-002
          20  3.999056656399166E-003
          21  0.621447697795633     
          22 -0.172476141826468     
          23  0.206183182853541     
          24  8.647703064209870E-003
          25  1.894669723881195E-002
          26 -0.617110234554871     
          27  0.311345887952895     
          28  0.311345902616937     
          29 -0.617110213383917     
Sym=    21a
Ene=   0.157062285189956     
Spin= Alpha
Occup=     0.00000000
           1  1.935744407243587E-008
           2  0.183585751131218     
           3  5.879782410756939E-003
           4  9.564927532784103E-005
           5  0.331438810330807     
           6  0.471511631156907     
           7  7.390453921473582E-002
           8  2.672575830917677E-003
           9  2.012263368967451E-002
          10  0.458867484202746     
          11 -0.141958627414393     
          12 -6.226387522921262E-003
          13  3.466301925860049E-009
          14  0.340287561202472     
          15  1.089853957435092E-002
          16  1.773005370560575E-004
          17 -2.012263189771369E-002
          18  0.448836518859330     
          19  0.171030081335257     
          20  6.699239019008449E-003
          21 -0.331438846693635     
          22  0.475276932979081     
          23 -4.358133215119977E-002
          24 -2.179309313911468E-003
          25 -1.095174752311570E-008
          26 -0.604594862929009     
          27 -0.457147209026339     
          28  0.457147210268384     
          29  0.604594890275188     
Sym=    22a
Ene=   0.179305881019690     
Spin= Alpha
Occup=     0.00000000
           1 -1.255046673545071E-007
           2  0.376658283301711     
           3  1.206336318422150E-002
           4  1.962272447364363E-004
           5 -0.588379616973416     
           6 -3.030984639329314E-002
           7  0.152050327632749     
           8  6.299672909284774E-003
           9  0.675360539243352     
          10  0.244900449298108     
          11  8.018379368202522E-002
          12  3.113179457267001E-003
          13 -8.375051109294766E-008
          14 -0.260738380382558     
          15 -8.350826542404927E-003
          16 -1.358291583013139E-004
          17 -0.675360389032949     
          18  0.249532571612112     
          19 -6.434850077301112E-002
          20 -2.855651015753141E-003
          21  0.588379742202963     
          22 -2.051154244797293E-002
          23 -0.153677948218352     
          24 -6.326112846822602E-003