[Molden Format]
[Title]
[Atoms] AU
C      1     6 -0.33585259896099E+01  0.18514336244255E+01 -0.18686317226714E+01
N      2     7 -0.21035092500341E+01  0.72024407613575E-02 -0.30274501388966E+00
C      3     6 -0.35819583867731E+01 -0.14289173344634E+01  0.14805118276899E+01
C      4     6  0.47237147203944E+00 -0.80868561636309E-01 -0.21716162004214E+00
C      5     6  0.19875154182920E+01  0.14325450790576E+01 -0.17869765534776E+01
C      6     6  0.45824958739735E+01  0.12295307631295E+01 -0.16403316172608E+01
N      7     7  0.57974271080619E+01 -0.31673930902369E+00 -0.92935859186831E-01
C      8     6  0.43799668806725E+01 -0.17439283635257E+01  0.13954796235416E+01
C      9     6  0.17732750665719E+01 -0.17128562744083E+01  0.14243824184570E+01
H     10     1 -0.28772197423576E+01  0.37856481798036E+01 -0.13073637227857E+01
H     11     1 -0.28444544359728E+01  0.15944167316764E+01 -0.38525530507558E+01
H     12     1 -0.53936410186095E+01  0.16203753395517E+01 -0.17058731775845E+01
H     13     1 -0.55814140406589E+01 -0.11364384864210E+01  0.11087527855113E+01
H     14     1 -0.31934177081502E+01 -0.85664103465874E+00  0.34322801657778E+01
H     15     1 -0.31879067253935E+01 -0.34480302857961E+01  0.12956404236276E+01
H     16     1  0.11695044247154E+01  0.27523847494416E+01 -0.31026212051626E+01
H     17     1  0.57720237128314E+01  0.23846771349322E+01 -0.28400615962772E+01
H     18     1  0.54057169787491E+01 -0.29933098803573E+01  0.26506984484078E+01
H     19     1  0.78175036165243E+00 -0.29404845124890E+01  0.27096245219383E+01
[GTO]
           1 0
 s           4   1.00000000000000     
   51.0493630955799      -0.163120632101274     
   8.79112274068875      -0.199110245810007     
  0.706404222589298       0.318820477536558     
  0.269228134134116       0.127065041842404     
 p           4   1.00000000000000     
   5.82636561408000       0.737164515452096     
   1.51068960187200       0.682163716148503     
  0.532564832880000       0.357830539292537     
  0.212023236906000       5.398303027584788E-002
 
           2 0
 s           4   1.00000000000000     
   63.5940244669410      -0.192343884147216     
   10.9514172315237      -0.234781079249537     
  0.879993102573770       0.375937539017009     
  0.335387152965211       0.149828892718628     
 p           4   1.00000000000000     
   7.29650404814951       0.976586663156674     
   1.89187454507126       0.903722267303458     
  0.666944321108241       0.474049584615364     
  0.265522026741309       7.151606771501186E-002
 
           3 0
 s           4   1.00000000000000     
   51.0493630955799      -0.163120632101274     
   8.79112274068875      -0.199110245810007     
  0.706404222589298       0.318820477536558     
  0.269228134134116       0.127065041842404     
 p           4   1.00000000000000     
   5.82636561408000       0.737164515452096     
   1.51068960187200       0.682163716148503     
  0.532564832880000       0.357830539292537     
  0.212023236906000       5.398303027584788E-002
 
           4 0
 s           4   1.00000000000000     
   51.0493630955799      -0.163120632101274     
   8.79112274068875      -0.199110245810007     
  0.706404222589298       0.318820477536558     
  0.269228134134116       0.127065041842404     
 p           4   1.00000000000000     
   5.82636561408000       0.737164515452096     
   1.51068960187200       0.682163716148503     
  0.532564832880000       0.357830539292537     
  0.212023236906000       5.398303027584788E-002
 
           5 0
 s           4   1.00000000000000     
   51.0493630955799      -0.163120632101274     
   8.79112274068875      -0.199110245810007     
  0.706404222589298       0.318820477536558     
  0.269228134134116       0.127065041842404     
 p           4   1.00000000000000     
   5.82636561408000       0.737164515452096     
   1.51068960187200       0.682163716148503     
  0.532564832880000       0.357830539292537     
  0.212023236906000       5.398303027584788E-002
 
           6 0
 s           4   1.00000000000000     
   51.0493630955799      -0.163120632101274     
   8.79112274068875      -0.199110245810007     
  0.706404222589298       0.318820477536558     
  0.269228134134116       0.127065041842404     
 p           4   1.00000000000000     
   5.82636561408000       0.737164515452096     
   1.51068960187200       0.682163716148503     
  0.532564832880000       0.357830539292537     
  0.212023236906000       5.398303027584788E-002
 
           7 0
 s           4   1.00000000000000     
   63.5940244669410      -0.192343884147216     
   10.9514172315237      -0.234781079249537     
  0.879993102573770       0.375937539017009     
  0.335387152965211       0.149828892718628     
 p           4   1.00000000000000     
   7.29650404814951       0.976586663156674     
   1.89187454507126       0.903722267303458     
  0.666944321108241       0.474049584615364     
  0.265522026741309       7.151606771501186E-002
 
           8 0
 s           4   1.00000000000000     
   51.0493630955799      -0.163120632101274     
   8.79112274068875      -0.199110245810007     
  0.706404222589298       0.318820477536558     
  0.269228134134116       0.127065041842404     
 p           4   1.00000000000000     
   5.82636561408000       0.737164515452096     
   1.51068960187200       0.682163716148503     
  0.532564832880000       0.357830539292537     
  0.212023236906000       5.398303027584788E-002
 
           9 0
 s           4   1.00000000000000     
   51.0493630955799      -0.163120632101274     
   8.79112274068875      -0.199110245810007     
  0.706404222589298       0.318820477536558     
  0.269228134134116       0.127065041842404     
 p           4   1.00000000000000     
   5.82636561408000       0.737164515452096     
   1.51068960187200       0.682163716148503     
  0.532564832880000       0.357830539292537     
  0.212023236906000       5.398303027584788E-002
 
          10 0
 s           3   1.00000000000000     
   3.37022769753360       0.273591105889083     
  0.613891182214980       0.264605406538605     
  0.166142911484160       8.246594753408230E-002
 
          11 0
 s           3   1.00000000000000     
   3.37022769753360       0.273591105889083     
  0.613891182214980       0.264605406538605     
  0.166142911484160       8.246594753408230E-002
 
          12 0
 s           3   1.00000000000000     
   3.37022769753360       0.273591105889083     
  0.613891182214980       0.264605406538605     
  0.166142911484160       8.246594753408230E-002
 
          13 0
 s           3   1.00000000000000     
   3.37022769753360       0.273591105889083     
  0.613891182214980       0.264605406538605     
  0.166142911484160       8.246594753408230E-002
 
          14 0
 s           3   1.00000000000000     
   3.37022769753360       0.273591105889083     
  0.613891182214980       0.264605406538605     
  0.166142911484160       8.246594753408230E-002
 
          15 0
 s           3   1.00000000000000     
   3.37022769753360       0.273591105889083     
  0.613891182214980       0.264605406538605     
  0.166142911484160       8.246594753408230E-002
 
          16 0
 s           3   1.00000000000000     
   3.37022769753360       0.273591105889083     
  0.613891182214980       0.264605406538605     
  0.166142911484160       8.246594753408230E-002
 
          17 0
 s           3   1.00000000000000     
   3.37022769753360       0.273591105889083     
  0.613891182214980       0.264605406538605     
  0.166142911484160       8.246594753408230E-002
 
          18 0
 s           3   1.00000000000000     
   3.37022769753360       0.273591105889083     
  0.613891182214980       0.264605406538605     
  0.166142911484160       8.246594753408230E-002
 
          19 0
 s           3   1.00000000000000     
   3.37022769753360       0.273591105889083     
  0.613891182214980       0.264605406538605     
  0.166142911484160       8.246594753408230E-002
 
[MO]
Sym=     1a
Ene=  -0.663239927326525     
Spin= Alpha
Occup=     2.00000000
           1 -0.232998995280244     
           2 -6.146485268910182E-002
           3  8.569862156614597E-002
           4 -7.902147653941145E-002
           5 -0.522827854664619     
           6 -1.304248720781741E-002
           7 -1.828309801713341E-002
           8 -1.877764293016287E-002
           9 -0.232998976634246     
          10 -7.225827983716729E-002
          11 -7.276651928325353E-002
          12  8.276683101293568E-002
          13 -0.281603328127020     
          14  0.113955181237685     
          15 -7.433487486002953E-003
          16  3.215267739740777E-004
          17 -8.560518402320469E-002
          18  4.186419073117315E-002
          19  2.903693311687497E-002
          20 -3.133712131035343E-002
          21 -2.051550112439202E-002
          22  1.654710939492212E-002
          23  6.258763355421848E-003
          24 -6.896970295133378E-003
          25 -1.299360792963746E-002
          26  1.158582291240920E-002
          27 -5.572255595014028E-004
          28  2.270974239637257E-004
          29 -2.051553471650563E-002
          30  1.558698707220935E-002
          31 -7.837272698568072E-003
          32  7.494635136649196E-003
          33 -8.560518386056905E-002
          34  3.761293141977493E-002
          35 -3.337838699621126E-002
          36  3.238701531063758E-002
          37 -5.188252121409186E-002
          38 -4.960276218093811E-002
          39 -5.582556023759698E-002
          40 -5.582555581097064E-002
          41 -5.188251326516907E-002
          42 -4.960275200580744E-002
          43 -2.071463447222970E-002
          44 -1.378081553996627E-003
          45 -1.378113239671837E-003
          46 -2.071463076819725E-002
Sym=     2a
Ene=  -0.647326029441067     
Spin= Alpha
Occup=     2.00000000
           1 -0.161104280913876     
           2  2.149428066094233E-002
           3  4.380631389218637E-002
           4 -4.194034811403054E-002
           5 -9.689692460234854E-002
           6  0.219276266856039     
           7 -1.868022612927126E-002
           8 -3.667861339717144E-003
           9 -0.161104206088527     
          10  1.563209536306921E-002
          11 -4.226033018808304E-002
          12  4.593145465142646E-002
          13  0.340103166596242     
          14  8.571566757360562E-002
          15 -5.580095130551800E-003
          16  2.529073392654955E-004
          17  0.239997937078086     
          18  4.743391001415473E-003
          19 -7.018816015751070E-002
          20  7.100713821690474E-002
          21  0.189109818472272     
          22 -5.705561145119575E-002
          23 -4.830885832181742E-002
          24  5.068818889748423E-002
          25  0.173752124129461     
          26 -0.100634885505045     
          27  4.619358892874960E-003
          28 -2.189228137550847E-003
          29  0.189109805738694     
          30 -5.013823964293432E-002
          31  5.324973734560383E-002
          32 -5.300005926709542E-002
          33  0.239997956003301     
          34  1.421720265662449E-002
          35  6.890314093702951E-002
          36 -7.100084561902960E-002
          37 -3.599819565151290E-002
          38 -3.317356227191452E-002
          39 -6.805962201658471E-002
          40 -6.805960190971344E-002
          41 -3.599815403290591E-002
          42 -3.317354719363116E-002
          43  3.815302664651881E-002
          44  2.307747143681825E-002
          45  2.307745778072422E-002
          46  3.815303565007102E-002
Sym=     3a
Ene=  -0.638566856190478     
Spin= Alpha
Occup=     2.00000000
           1  0.362889135658775     
           2  6.521893292850915E-002
           3 -2.456233981239251E-002
           4  1.047837442016254E-002
           5 -3.091303460950574E-008
           6  1.750765976671806E-002
           7  0.257040048146313     
           8 -0.262430442518255     
           9 -0.362889221023234     
          10 -6.726980789844123E-002
          11 -5.548007651436494E-003
          12  2.026344567388405E-002
          13  6.035239687081056E-008
          14  6.248578706095989E-003
          15  9.173944242795634E-002
          16 -9.366326384464772E-002
          17  9.349804443563019E-002
          18 -2.709326329670910E-002
          19 -1.804873018548225E-003
          20  2.634738949219444E-003
          21  2.946634214425405E-002
          22 -1.877259679167612E-002
          23  2.491508580258125E-003
          24 -2.059708262306691E-003
          25 -5.439274405900330E-008
          26  4.454974187594139E-004
          27  6.540336406776120E-003
          28 -6.677470804429751E-003
          29 -2.946637327502746E-002
          30  1.899323188971333E-002
          31  7.480555728428329E-004
          32 -1.247780398051209E-003
          33 -9.349799629592621E-002
          34  2.667130478178470E-002
          35 -4.389744566210771E-003
          36  3.689746536792767E-003
          37  0.120060674511372     
          38  0.126331743878440     
          39  9.282832708973938E-002
          40 -9.282836548008998E-002
          41 -0.120060667591936     
          42 -0.126331770864060     
          43  4.188992824538437E-002
          44  6.084000971126742E-003
          45 -6.083974437228729E-003
          46 -4.188991179466193E-002
Sym=     4a
Ene=  -0.628747899761586     
Spin= Alpha
Occup=     2.00000000
           1  0.166747950845597     
           2 -6.100652522675566E-002
           3 -2.082945072001007E-002
           4  2.258440807241662E-002
           5 -6.949451474613366E-002
           6 -0.275843303107234     
           7  1.924482483666604E-002
           8  4.470219138389304E-004
           9  0.166747860850536     
          10 -5.780938016530562E-002
          11  2.610990738269602E-002
          12 -2.533895037600223E-002
          13 -0.242416225339766     
          14  0.126582214829628     
          15 -2.825752336003287E-003
          16  5.676958797812609E-003
          17  2.536348236584797E-002
          18  0.119881447447862     
          19  9.016168042220333E-003
          20 -1.061677357733899E-002
          21  0.248448101080010     
          22  1.249445863289990E-002
          23 -7.036341586015160E-002
          24  7.197862117145477E-002
          25  0.325907587143679     
          26 -0.132349734681484     
          27  6.206072580185643E-003
          28 -2.750876176978125E-003
          29  0.248448093731136     
          30  2.201082965228155E-002
          31  6.935235984131795E-002
          32 -7.066693042187550E-002
          33  2.536343558549832E-002
          34  0.118016729370772     
          35 -1.836118397961101E-002
          36  1.733467015670413E-002
          37  4.585902617454058E-002
          38  4.255060261920811E-002
          39  9.604674284456298E-002
          40  9.604670877899162E-002
          41  4.585906125812129E-002
          42  4.255050780810405E-002
          43 -3.387639845930816E-003
          44  4.352798288511818E-002
          45  4.352798529324321E-002
          46 -3.387659382963550E-003
Sym=     5a
Ene=  -0.607782537020048     
Spin= Alpha
Occup=     2.00000000
           1 -0.103735327812445     
           2  1.014998936419461E-002
           3 -5.189634532534366E-003
           4  5.235032048270410E-003
           5  9.587712362383452E-010
           6 -2.085683500067856E-003
           7 -3.062150645058414E-002
           8  3.126375512354557E-002
           9  0.103735391509172     
          10 -1.080504189333794E-002
          11 -4.427383450723188E-003
          12  4.583764867329615E-003
          13  2.191765841381476E-008
          14  7.348899145518143E-003
          15  0.107894121242600     
          16 -0.110156573426844     
          17  0.309582231401094     
          18  8.311117051797434E-002
          19  7.530817362086183E-003
          20 -9.071269051338159E-003
          21  0.331152281062902     
          22 -6.534569660345178E-002
          23  1.898822055318683E-002
          24 -1.741550250097199E-002
          25 -1.251394982039808E-008
          26  8.928203587995688E-003
          27  0.131080835589713     
          28 -0.133829537523571     
          29 -0.331152314136213     
          30  6.749639399252720E-002
          31  1.258755714022563E-002
          32 -1.482238506896342E-002
          33 -0.309582239508809     
          34 -8.161698309221962E-002
          35  1.440666804350429E-002
          36 -1.332621061179744E-002
          37 -3.832585034787395E-002
          38 -3.732761280150777E-002
          39 -4.267154211632918E-002
          40  4.267157117527186E-002
          41  3.832592659893859E-002
          42  3.732761384169801E-002
          43  9.654114386808084E-002
          44  0.103108901949616     
          45 -0.103108915184462     
          46 -9.654114482765994E-002
Sym=     6a
Ene=  -0.595599942265402     
Spin= Alpha
Occup=     2.00000000
           1  0.147835795264573     
           2 -8.695140201630515E-002
           3  6.407369771800987E-002
           4 -5.336771704264404E-002
           5 -0.261580409333990     
           6 -0.119898813309053     
           7  6.987809224073602E-003
           8 -1.154548369937307E-003
           9  0.147835795250014     
          10 -9.444724035966509E-002
          11 -4.597719666735147E-002
          12  5.899083240383959E-002
          13  6.747190892905723E-002
          14  0.235346422818210     
          15 -7.587710225235742E-003
          16  8.268917194676182E-003
          17  0.225536108531396     
          18 -1.112987601242146E-003
          19 -1.719317123582239E-002
          20  1.920149001242914E-002
          21 -6.720495491902349E-002
          22 -0.151437597190954     
          23  8.231902647692624E-002
          24 -8.006867811833347E-002
          25 -0.360151789396141     
          26  5.509736049793426E-002
          27 -2.498814482974072E-003
          28  1.228169638472836E-003
          29 -6.720496023384176E-002
          30 -0.161669497199231     
          31 -6.790141599952824E-002
          32  7.330180741633067E-002
          33  0.225536200889912     
          34  1.340828321403597E-003
          35  1.883299751431259E-002
          36 -1.758013712340466E-002
          37  7.901061585478145E-002
          38  7.843465390664654E-002
          39  0.114321878288861     
          40  0.114321889894843     
          41  7.901056453417027E-002
          42  7.843471514435234E-002
          43  7.772164378788034E-002
          44 -1.393752885151824E-002
          45 -1.393754216533359E-002
          46  7.772168095023695E-002
Sym=     7a
Ene=  -0.573558159407029     
Spin= Alpha
Occup=     2.00000000
           1 -0.118976982713988     
           2  7.936027533688275E-002
           3 -4.310332168404007E-002
           4  3.109266817584624E-002
           5  1.042142786057208E-007
           6  3.422931963696651E-003
           7  5.025740064689738E-002
           8 -5.131107422500392E-002
           9  0.118976734980367     
          10 -8.398144185933105E-002
          11 -2.474374322759456E-002
          12  3.817740699890990E-002
          13 -9.200866146441624E-008
          14  1.223535857299850E-002
          15  0.179633817240287     
          16 -0.183400590355304     
          17  0.222309836983141     
          18 -0.135148432249256     
          19  5.090134347419024E-003
          20 -1.991109072638897E-003
          21 -0.242260784915165     
          22 -0.144752895672308     
          23  1.488137785351184E-002
          24 -1.203590710287845E-002
          25 -2.377969236749100E-007
          26 -1.365567639319403E-002
          27 -0.200487162325911     
          28  0.204691288695797     
          29  0.242260852778457     
          30  0.145904611596648     
          31  2.031166094006463E-003
          32 -5.231276235060407E-003
          33 -0.222309616262099     
          34  0.135010017060141     
          35 -7.124593227315715E-003
          36  4.068267835414247E-003
          37 -5.747823585519954E-002
          38 -4.958099777887368E-002
          39 -9.180087266077634E-002
          40  9.180076464353946E-002
          41  5.747812068687836E-002
          42  4.958063121676358E-002
          43  0.116635267157368     
          44 -0.121326116546193     
          45  0.121326158183482     
          46 -0.116635223272024     
Sym=     8a
Ene=  -0.565298568043366     
Spin= Alpha
Occup=     2.00000000
           1  0.140652610081863     
           2 -3.327628162699729E-002
           3  0.192942157901602     
           4 -0.167261183939526     
           5 -0.244093735876745     
           6  0.239151356037390     
           7 -1.292271802245890E-002
           8  3.297203626382669E-003
           9  0.140652794870698     
          10 -5.732972882225922E-002
          11 -0.160199702933032     
          12  0.193286523924934     
          13  0.147935065640538     
          14 -4.183965982966880E-002
          15  1.325159514632915E-003
          16 -1.493615642041123E-003
          17 -0.127524081619839     
          18 -0.119615493357799     
          19 -4.929102382831161E-002
          20  5.234984362675797E-002
          21 -9.717619397305048E-002
          22  0.117531916039686     
          23 -8.805168543574513E-002
          24  8.658725542035055E-002
          25  0.220732629650837     
          26 -2.580917463220047E-004
          27 -7.616960599679209E-005
          28 -9.159382149548441E-005
          29 -9.717571213495384E-002
          30  0.128742013033087     
          31  7.652839703033312E-002
          32 -8.144403792649110E-002
          33 -0.127524367862887     
          34 -0.112235998445338     
          35  5.904790604800685E-002
          36 -5.826090518291156E-002
          37  0.149800084513648     
          38  0.150266263740289     
          39  7.547595307607316E-002
          40  7.547609137512386E-002
          41  0.149800160722232     
          42  0.150266339490975     
          43 -4.767475155279353E-002
          44 -6.167276300293759E-002
          45 -6.167252058722908E-002
          46 -4.767493343682598E-002
Sym=     9a
Ene=  -0.546962363584714     
Spin= Alpha
Occup=     2.00000000
           1 -3.670937089649050E-002
           2 -0.118897177821840     
           3 -0.117727197204628     
           4  0.121322050752749     
           5 -8.078341603428836E-003
           6 -0.213364358214699     
           7  1.845067087695711E-002
           8  3.837539123881419E-003
           9 -3.670946764616868E-002
          10 -0.102280553169885     
          11  0.126229320402696     
          12 -0.127750164423400     
          13  0.146381157614990     
          14  0.229812074022667     
          15 -4.916334811632710E-003
          16  1.051625564394490E-002
          17 -4.067998676364115E-002
          18 -6.914307379099689E-002
          19 -0.149908906426415     
          20  0.156773824429518     
          21 -0.166872477977149     
          22 -2.016179273439662E-002
          23 -0.110039707986408     
          24  0.113175081006412     
          25  3.389675176018042E-002
          26 -3.381520563112917E-002
          27  1.755300614909331E-003
          28 -5.366139526093923E-004
          29 -0.166872572062430     
          30 -5.057979119061083E-003
          31  0.111708568643530     
          32 -0.113223088268024     
          33 -4.067997472881674E-002
          34 -4.820194940274852E-002
          35  0.157542937244713     
          36 -0.157125118202310     
          37 -9.614874568642613E-002
          38 -0.117178549179082     
          39  8.857159353021561E-002
          40  8.857143656180980E-002
          41 -9.614859265449764E-002
          42 -0.117178794904263     
          43 -0.144483164686555     
          44 -0.158324610914716     
          45 -0.158324679071365     
          46 -0.144483155931657     
Sym=    10a
Ene=  -0.541086692443169     
Spin= Alpha
Occup=     2.00000000
           1  1.816137743083752E-003
           2 -2.898799971175483E-002
           3 -0.224647434738835     
           4 -0.248907493921594     
           5  2.935722818949249E-002
           6 -1.771457850403344E-002
           7 -0.326316232660584     
           8 -0.320795931906339     
           9  1.816326653851017E-003
          10 -3.081895311234848E-002
          11 -0.251521297203680     
          12 -0.221469925030847     
          13  6.124637920161279E-003
          14 -3.426906674746732E-003
          15 -0.156230271332784     
          16 -0.153250166101440     
          17 -2.420474004569589E-004
          18 -6.348192331964333E-003
          19 -5.680528971235275E-002
          20 -5.343138047097602E-002
          21 -4.426874641450237E-003
          22  1.519795523669122E-003
          23 -2.766901214721332E-002
          24 -2.064999880507526E-002
          25  6.030031540710011E-003
          26 -5.270243967982318E-004
          27 -1.996537566582107E-002
          28 -1.959038484108172E-002
          29 -4.426896070858805E-003
          30  1.951279464573786E-003
          31 -2.133537801076644E-002
          32 -2.711642789977598E-002
          33 -2.421266144234419E-004
          34 -6.169505887095306E-003
          35 -5.418114260094842E-002
          36 -5.611054107343601E-002
          37 -0.198689781546452     
          38  0.184144216755247     
          39  2.834453401862492E-002
          40  2.834502503759512E-002
          41 -0.198689598491493     
          42  0.184144308824469     
          43  2.334538980985358E-003
          44 -3.648176149656930E-003
          45 -3.648188225766804E-003
          46  2.334644097624872E-003
Sym=    11a
Ene=  -0.536143523252176     
Spin= Alpha
Occup=     2.00000000
           1 -6.930779239545164E-002
           2  0.246361236475049     
           3 -0.182472552029829     
           4  0.122442968588991     
           5  4.423539676244568E-008
           6  1.926655282530614E-002
           7  0.282864813516041     
           8 -0.288796319529534     
           9  6.930778121223929E-002
          10 -0.265706822892400     
          11 -0.101552433251942     
          12  0.167539126707198     
          13 -1.589475347664830E-008
          14  3.963880105895218E-003
          15  5.819636787325584E-002
          16 -5.941669049016425E-002
          17 -0.124952024808618     
          18 -6.699753249492063E-002
          19 -4.622235304086413E-002
          20  4.716533318071825E-002
          21  4.493151038082790E-002
          22  0.150354279206562     
          23 -4.386943413460475E-002
          24  4.083301966869589E-002
          25 -1.795775832209849E-007
          26  8.910185893528677E-003
          27  0.130820155968163     
          28 -0.133563338599990     
          29 -4.493156515525791E-002
          30 -0.155366601004875     
          31 -2.971817857281491E-002
          32  3.429779619876133E-002
          33  0.124951885779287     
          34  6.041337223595949E-002
          35 -5.044505865531330E-002
          36  5.152919274895523E-002
          37 -0.105553266856493     
          38 -7.385947382013590E-002
          39 -0.188156619756087     
          40  0.188156543143989     
          41  0.105553575887238     
          42  7.385912730935229E-002
          43 -8.081521341863578E-002
          44  3.845756587825814E-002
          45 -3.845763875491733E-002
          46  8.081503637456902E-002
Sym=    12a
Ene=  -0.501212826904969     
Spin= Alpha
Occup=     2.00000000
           1  4.094110483363659E-002
           2  0.291704046675050     
           3  1.705921716122059E-002
           4 -5.387880950262201E-002
           5  5.868258020601497E-002
           6 -0.168408072986404     
           7  1.122141625104331E-002
           8 -2.441406038638558E-004
           9  4.094102744957787E-002
          10  0.285586836033825     
          11 -7.276113870777406E-002
          12  3.783406863681649E-002
          13 -0.192924455342082     
          14  9.143541684610880E-002
          15  4.642432476186933E-003
          16  1.064733270151036E-002
          17  4.044726509280402E-002
          18  4.303953027667971E-002
          19  1.602294907419175E-002
          20 -7.321330834755415E-003
          21 -9.702489490868001E-002
          22 -0.146028993851551     
          23 -0.113398378459628     
          24  0.126338046543917     
          25 -6.452560708237721E-003
          26 -0.128655710989468     
          27  9.788606475662704E-003
          28  1.004755488484437E-003
          29 -9.702492859396708E-002
          30 -0.129236519676381     
          31  0.133137995886192     
          32 -0.125367939607857     
          33  4.044721133713387E-002
          34  4.128038157771589E-002
          35 -9.799010360200901E-003
          36  1.904244719943873E-002
          37  8.036406168249047E-002
          38  0.125345803396245     
          39 -0.275055017267899     
          40 -0.275055879217154     
          41  8.036852364830042E-002
          42  0.125342079045052     
          43  4.516910531341299E-002
          44 -0.218360438921411     
          45 -0.218360374555789     
          46  4.516906617741173E-002
Sym=    13a
Ene=  -0.497775719389386     
Spin= Alpha
Occup=     2.00000000
           1 -1.787896416249078E-003
           2  3.812382289476262E-002
           3  0.292494248596326     
           4  0.298435160740261     
           5  9.541199621360129E-008
           6 -4.434140201108587E-004
           7 -6.476289923633875E-003
           8  6.612332652255552E-003
           9  1.788220070937868E-003
          10 -3.875857705192079E-002
          11 -0.301876925670108     
          12 -0.288856509403372     
          13 -1.393204073281672E-006
          14  2.096430041253613E-003
          15  3.075878169958475E-002