[Molden Format]
[Title]
[Atoms] AU
O      1     8  0.43694805950342E+00  0.19869263238242E+01 -0.46621977845489E+00
C      2     6 -0.53205784541979E-01 -0.32171566759098E+00 -0.42362010704631E+00
O      3     8 -0.24887466660292E+01 -0.10169252853147E+01 -0.24430138787512E+00
O      4     8  0.15717111840179E+01 -0.19962940548859E+01 -0.53762835982328E+00
Na     5    11  0.40250002055068E+01  0.84162792168726E+00 -0.72247854865733E+00
H      6     1 -0.34917069984569E+01  0.50638076228011E+00 -0.17944387034403E+00
[GTO]
           1 0
 s           4   1.00000000000000     
   69.1379619061966      -0.204787563700778     
   11.9061291327073      -0.249970231368273     
  0.956708277443407       0.400258802406396     
  0.364625204960737       0.159522066676936     
 p           4   1.00000000000000     
   8.21241932577816        1.13215567991868     
   2.12935769970981        1.04768407822548     
  0.750664482023609       0.549565082171590     
  0.298852465432831       8.290848659276662E-002
 
           2 0
 s           4   1.00000000000000     
   51.0493630955799      -0.163120632101274     
   8.79112274068875      -0.199110245810007     
  0.706404222589298       0.318820477536558     
  0.269228134134116       0.127065041842404     
 p           4   1.00000000000000     
   5.82636561408000       0.737164515452096     
   1.51068960187200       0.682163716148503     
  0.532564832880000       0.357830539292537     
  0.212023236906000       5.398303027584788E-002
 
           3 0
 s           4   1.00000000000000     
   69.1379619061966      -0.204787563700778     
   11.9061291327073      -0.249970231368273     
  0.956708277443407       0.400258802406396     
  0.364625204960737       0.159522066676936     
 p           4   1.00000000000000     
   8.21241932577816        1.13215567991868     
   2.12935769970981        1.04768407822548     
  0.750664482023609       0.549565082171590     
  0.298852465432831       8.290848659276662E-002
 
           4 0
 s           4   1.00000000000000     
   69.1379619061966      -0.204787563700778     
   11.9061291327073      -0.249970231368273     
  0.956708277443407       0.400258802406396     
  0.364625204960737       0.159522066676936     
 p           4   1.00000000000000     
   8.21241932577816        1.13215567991868     
   2.12935769970981        1.04768407822548     
  0.750664482023609       0.549565082171590     
  0.298852465432831       8.290848659276662E-002
 
           5 0
 s           4   1.00000000000000     
  0.882794627587373      -2.139073406984328E-002
  0.248661564932587      -4.327968176218863E-002
  4.458888535438117E-002  5.199503858098165E-002
  2.193791359666633E-002  1.458330453394601E-002
 p           4   1.00000000000000     
  0.609627812148130      -1.101274864471000E-002
  6.299891376469492E-002  1.239527058613037E-002
  2.847335657736565E-002  9.747719223638873E-003
  1.376464886513083E-002  1.441521337540452E-003
 
           6 0
 s           3   1.00000000000000     
   3.37022769753360       0.273591105889083     
  0.613891182214980       0.264605406538605     
  0.166142911484160       8.246594753408230E-002
 
[MO]
Sym=     1a
Ene=  -0.710862491104142     
Spin= Alpha
Occup=     2.00000000
           1  0.145266288646064     
           2 -6.124515549764838E-002
           3 -7.655360903407146E-002
           4  4.666428571440320E-003
           5  0.309715800940571     
           6 -0.161601135274161     
           7 -8.850327463882287E-003
           8  1.173664341243079E-002
           9  0.681512350077076     
          10  7.060394620599976E-002
          11  7.823054724609119E-002
          12 -5.492561686371873E-003
          13  6.797815323849210E-002
          14 -6.843449920717881E-002
          15  3.335248602688045E-002
          16  4.886754434214957E-003
          17 -2.553705145898013E-002
          18  9.240169048903761E-003
          19  1.321891093646912E-003
          20 -6.714026486742488E-004
          21  0.128434474152164     
Sym=     2a
Ene=  -0.690687830639513     
Spin= Alpha
Occup=     2.00000000
           1  0.431963371693351     
           2  1.264869802886546E-002
           3 -0.125875825828867     
           4 -5.563427215245706E-004
           5  0.331126492921257     
           6  0.211340385815988     
           7  6.462279282383773E-002
           8 -1.561213117940338E-002
           9 -0.317928877595705     
          10  0.112521222415014     
          11 -8.190715453088741E-003
          12 -8.085487861838259E-003
          13  0.398773000183396     
          14 -5.085473772915310E-002
          15  0.123161821471541     
          16  3.374654442232485E-003
          17  5.117941758768538E-003
          18 -1.085575914683371E-002
          19 -9.827288527865373E-004
          20  7.856627840249019E-004
          21 -8.546664439991300E-002
Sym=     3a
Ene=  -0.680299089525357     
Spin= Alpha
Occup=     2.00000000
           1 -0.522548089926390     
           2  5.901176568805001E-002
           3  3.115718943915177E-002
           4 -4.383454916548498E-003
           5  4.936957483994097E-002
           6  7.158165789488760E-002
           7 -0.340527107913323     
           8 -4.227555473270453E-003
           9  8.551748208188793E-002
          10  6.743128900114019E-002
          11 -0.110168731765978     
          12 -4.533701437217465E-003
          13  0.514697396852864     
          14 -8.112213635632848E-002
          15  2.090243487856228E-002
          16  5.881162729173791E-003
          17 -3.038404760173891E-003
          18  3.666361887797034E-003
          19 -1.258465232561216E-002
          20 -2.311142868458147E-004
          21 -3.950926720748883E-002
Sym=     4a
Ene=  -0.612772569895902     
Spin= Alpha
Occup=     2.00000000
           1  0.154631703825656     
           2  9.556065684595316E-002
           3  9.456972966681146E-002
           4 -7.402928269453162E-003
           5 -0.245665094183845     
           6  0.243357112894854     
           7  6.946120468639548E-002
           8 -1.827252527372594E-002
           9  0.202857967665056     
          10 -0.547752361535115     
          11  9.708054086777129E-002
          12  3.888645286518037E-002
          13  0.378203130995013     
          14  0.203572627543099     
          15 -3.540992273203374E-002
          16 -1.489352337162075E-002
          17  3.693607838086145E-002
          18 -1.895360756681529E-002
          19 -1.542138609162295E-002
          20  1.396286634126098E-003
          21  0.261063199817978     
Sym=     5a
Ene=  -0.566032881176153     
Spin= Alpha
Occup=     2.00000000
           1 -0.512387190793711     
           2 -9.105952697138629E-002
           3 -0.440681911590481     
           4  6.378231778442069E-003
           5  0.198035944787107     
           6  0.101401494782348     
           7  0.158613574553576     
           8 -1.044296138324738E-002
           9 -0.234405611009764     
          10 -0.103842012391039     
          11  0.448681625542770     
          12  3.450783632798329E-003
          13 -9.349189945318757E-002
          14  3.482883981911155E-003
          15  0.206964906134480     
          16 -2.386645316212492E-003
          17 -7.917973670555563E-002
          18  5.970335633421663E-002
          19 -1.719880840046787E-002
          20 -4.412722374692344E-003
          21  0.217946151904494     
Sym=     6a
Ene=  -0.557632246726775     
Spin= Alpha
Occup=     2.00000000
           1 -2.647668966087013E-003
           2  2.501991639226729E-002
           3 -1.593366090009745E-003
           4  0.344896076378298     
           5  9.513072596558070E-004
           6  4.004064326802784E-002
           7  2.588980467874089E-003
           8  0.535223927511438     
           9 -2.033381801016445E-004
          10  3.257937267649178E-002
          11  3.183517492517160E-003
          12  0.466910971675746     
          13 -5.630981768037902E-004
          14  2.548981989074312E-002
          15  2.378348083641266E-003
          16  0.345100884605162     
          17 -3.624347393640790E-004
          18  2.694645661666079E-003
          19 -2.199860691738709E-005
          20  3.337026692431421E-002
          21  8.350166976984648E-004
Sym=     7a
Ene=  -0.543176136347254     
Spin= Alpha
Occup=     2.00000000
           1 -3.401894087106921E-002
           2  0.282800068076096     
           3 -0.141879498786422     
           4 -2.067220584400643E-002
           5  8.386399648874919E-002
           6  0.304348021427278     
           7 -5.669066458358967E-002
           8 -2.270238831714163E-002
           9  0.270742357711799     
          10 -0.237739429639809     
          11 -0.414367958460138     
          12  1.809014998452513E-002
          13 -0.433612436149654     
          14 -0.218809218914017     
          15  0.409137374455479     
          16  1.436859722847732E-002
          17 -4.728291958096466E-002
          18  1.015975855814978E-002
          19  4.094349525658291E-002
          20 -8.832558060451577E-004
          21 -6.607632098232892E-002
Sym=     8a
Ene=  -0.489889140581381     
Spin= Alpha
Occup=     2.00000000
           1 -0.197235443991990     
           2 -0.104470317626255     
           3 -0.437689030367797     
           4  7.967130864971058E-003
           5 -2.137867097378041E-002
           6 -4.186810027209370E-002
           7  0.304601216437624     
           8  1.417720476399468E-003
           9  0.245252099086055     
          10  1.819108163110748E-002
          11 -0.450846767389950     
          12  1.271518707197030E-003
          13  0.173212870389672     
          14  0.474682888601073     
          15 -0.158539940421534     
          16 -3.529933441086253E-002
          17  2.055692965726213E-002
          18  1.394145589204450E-002
          19 -9.014438792475230E-002
          20 -8.735522628677268E-004
          21 -0.233859649760233     
Sym=     9a
Ene=  -0.453517621369002     
Spin= Alpha
Occup=     2.00000000
           1 -1.522741565388225E-004
           2  2.877068164772803E-002
           3  3.484419608986997E-004
           4  0.397766839793996     
           5 -1.653439525608315E-006
           6  9.457933327305153E-003
           7  8.400156490754289E-004
           8  0.131496659799880     
           9  1.177683926238294E-004
          10 -5.952488238492859E-002
          11 -4.264138762481712E-003
          12 -0.824851690583885     
          13  1.621266912740312E-004
          14  2.779795444492321E-002
          15  4.422060137437694E-004
          16  0.371063929760169     
          17  5.945697708909820E-005
          18  2.981203904965982E-003
          19 -7.119056217137228E-005
          20  4.036905617999922E-002
          21 -1.403021353793200E-004
Sym=    10a
Ene=  -0.419854331560155     
Spin= Alpha
Occup=     2.00000000
           1  3.956789383452057E-002
           2 -0.679733687208294     
           3 -6.506652118064608E-002
           4  4.918464233200131E-002
           5  3.522354829599282E-002
           6  6.851499262997265E-002
           7  2.483535319007589E-002
           8 -5.056320935146859E-003
           9 -6.559151585165622E-002
          10 -0.341675792569665     
          11 -0.263882176551160     
          12  2.592721506413597E-002
          13  5.168876929970742E-002
          14 -0.480183958955956     
          15 -0.254133723029944     
          16  3.614351710414326E-002
          17 -0.210052618528058     
          18 -2.061873284100162E-002
          19 -1.794752182808144E-002
          20  1.603616022666581E-003
          21  2.881980158742118E-002
Sym=    11a
Ene=  -0.417151306363231     
Spin= Alpha
Occup=     2.00000000
           1  2.804046596689778E-005
           2  5.140290710502439E-002
           3  2.010471117633701E-003
           4  0.708350334582544     
           5  2.884499158392373E-005
           6 -7.208185480676200E-004
           7 -8.922091202854820E-006
           8 -1.048600237935128E-002
           9 -5.008246873579468E-005
          10  1.154516550937779E-003
          11  1.414117215335164E-005
          12  1.990704426136751E-002
          13  6.244174611581252E-005
          14 -5.238972021513029E-002
          15 -2.313488893163519E-003
          16 -0.710385409873587     
          17 -1.525143071300504E-004
          18 -1.960615799137769E-005
          19  4.351324031305659E-005
          20  1.899686980168563E-004
          21  1.715846264248929E-005
Sym=    12a
Ene=  -0.399949906387875     
Spin= Alpha
Occup=     2.00000000
           1  1.578321912756296E-002
           2  0.573061562181816     
           3 -0.346544755396108     
           4 -4.106484728643549E-002
           5  4.507734743774564E-003
           6 -1.806085673494107E-002
           7  6.750223207799153E-002
           8  1.134630996622090E-003
           9 -2.390981636471825E-002
          10 -4.511342820041982E-002
          11  5.324130892224088E-002
          12  3.291234612709800E-003
          13  1.423581261372012E-002
          14 -0.392976031556860     
          15 -0.654450566346473     
          16  3.067125299833693E-002
          17 -1.745958479970077E-002
          18  5.053150140858235E-004
          19 -1.175397631630713E-002
          20 -5.676120341741972E-006
          21  2.202898771856329E-002
Sym=    13a
Ene=  -0.290313709941291     
Spin= Alpha
Occup=     0.00000000
           1  0.170588970314934     
           2  0.173202889173493     
           3  4.475763801646235E-002
           4 -1.266749733019776E-002
           5 -1.492231158344908E-002
           6  1.813382937406260E-002
           7  5.988458745510409E-003
           8 -1.324629703613213E-003
           9  6.600816513904539E-002
          10  0.106224536839426     
          11  6.497220669211115E-002
          12 -7.988658583609601E-003
          13  0.169388203534010     
          14  0.163304849212090     
          15  6.094764654128301E-002
          16 -1.198658335641924E-002
          17 -0.965844930062823     
          18 -0.255350693209409     
          19 -7.712003017114875E-002
          20  1.866707331550429E-002
          21 -2.395985541312653E-002
Sym=    14a
Ene=  -0.169565632017477     
Spin= Alpha
Occup=     0.00000000
           1  3.788567902625895E-005
           2  3.296005007925632E-002
           3  1.337237504778513E-003
           4  0.452177742207605     
           5 -2.010033361253445E-004
           6 -6.475873823058464E-002
           7 -2.479495812896764E-003
           8 -0.888520568157356     
           9  3.994862757331137E-004
          10  2.437491235444293E-002
          11  1.489164726601526E-003
          12  0.337777645851097     
          13  1.035691930585523E-004
          14  3.425803682163626E-002
          15  1.383036958085908E-003
          16  0.471198985477829     
          17  2.748415775998567E-005
          18  2.164131577288869E-002
          19  8.634819648760770E-004
          20  0.296867136431277     
          21 -5.982036433303916E-004
Sym=    15a
Ene=  -9.952703152084488E-002
Spin= Alpha
Occup=     0.00000000
           1  7.705325284705933E-006
           2 -1.771368153575911E-002
           3 -6.850086226664510E-004
           4 -0.244329420109281     
           5  6.421593991007169E-006
           6  1.198064760515904E-002
           7  4.633127349838498E-004
           8  0.164025149149586     
           9 -1.124837490247755E-004
          10 -7.466201367395222E-003
          11 -3.828831912288780E-004
          12 -0.103695670363425     
          13 -1.463690252251804E-006
          14 -1.802979685053867E-002
          15 -6.805941247881007E-004
          16 -0.248820834320787     
          17 -4.384334243777117E-006
          18  6.959559843102235E-002
          19  2.571368778994555E-003
          20  0.962784278280512     
          21  1.296004962088827E-004
Sym=    16a
Ene=  -1.967264021082120E-002
Spin= Alpha
Occup=     0.00000000
           1  0.214681243103243     
           2  3.381419160187506E-002
           3  0.100309590265827     
           4 -2.711684730517198E-003
           5 -3.098357554157755E-003
           6  1.674999691190383E-002
           7 -4.025434303718913E-002
           8 -1.066778454267806E-003
           9  3.015925875142303E-002
          10 -2.563678707314785E-002
          11  8.911755810089807E-002
          12  1.545496817170804E-003
          13 -0.185941751696823     
          14 -8.906818450459354E-002
          15  7.006226500676371E-002
          16  6.217551139388943E-003
          17 -7.732444843424407E-003
          18  0.319447848511515     
          19 -0.967291727357052     
          20 -2.051196610130873E-002
          21 -3.438700190162711E-002
Sym=    17a
Ene=   5.520651808987426E-002
Spin= Alpha
Occup=     0.00000000
           1 -0.218851363395174     
           2  5.706499930486702E-002
           3  2.793671770142344E-002
           4 -3.983400856343354E-003
           5  0.146162859631151     
           6 -0.108523015775469     
           7 -0.101251739806312     
           8  7.685465207598473E-003
           9 -0.588240361197645     
          10  6.712782403220854E-002
          11 -0.441296991457910     
          12 -2.486282064816230E-003
          13 -0.316421393194933     
          14  0.134855607439213     
          15 -5.891208929127841E-002
          16 -9.492848716688786E-003
          17  0.228038184615176     
          18 -0.670039150151477     
          19 -0.275094576273973     
          20  4.926979855687873E-002
          21  0.645003243161225     
Sym=    18a
Ene=   0.213492732047151     
Spin= Alpha
Occup=     0.00000000
           1  0.346547360559629     
           2  4.741061022320722E-002
           3 -0.179135353492494     
           4 -2.806398488114980E-003
           5 -4.924568197292874E-002
           6 -7.701362960746334E-002
           7 -0.189109190157883     
           8  6.021189577847740E-003
           9 -0.395665082669768     
          10  0.345162341520473     
          11 -0.509447433802877     
          12 -2.228091323711139E-002
          13  0.189326954261007     
          14  0.100793876910413     
          15  4.121375275458487E-002
          16 -7.450581578603022E-003
          17 -0.290044223556386     
          18  0.703152109341969     
          19  0.170447115462413     
          20 -5.127222182289860E-002
          21  0.966693119249796     
Sym=    19a
Ene=   0.245577187228053     
Spin= Alpha
Occup=     0.00000000
           1 -6.531757421827010E-002
           2  0.224975063554607     
           3  0.281471430825898     
           4 -1.722058737429755E-002
           5  0.991123550096494     
           6 -0.619835590966609     
           7 -0.113759331911853     
           8  4.540938082054476E-002
           9 -0.374036139841038     
          10 -0.773351307793966     
          11 -0.111834326659006     
          12  5.637982914114446E-002
          13 -8.492271772489140E-003
          14  0.288544192800725     
          15 -7.311734137262658E-002
          16 -2.081302199156906E-002
          17 -0.163702781626097     
          18  0.259330850686212     
          19  8.244847279005746E-002
          20 -1.898700638935954E-002
          21 -0.192741573689982     
Sym=    20a
Ene=   0.477994946322128     
Spin= Alpha
Occup=     0.00000000
           1 -0.405934712836490     
           2 -5.705737815027200E-002
           3  0.650022720912591     
           4  2.270224973979430E-003
           5  0.740483079314661     
           6  0.939535956436558     
           7  0.342801099645012     
           8 -6.963239080411492E-002
           9  0.224685386356344     
          10  0.345368000532129     
          11 -3.318146458124885E-002
          12 -2.474871500422015E-002
          13 -0.357411794815532     
          14  0.235968210613057     
          15 -0.558547612162425     
          16 -1.566441709956914E-002
          17 -0.151592631640975     
          18  0.219080800422557     
          19  4.886179670913756E-002
          20 -1.597708829067227E-002
          21  0.201660592672704     
Sym=    21a
Ene=   0.618485781784807     
Spin= Alpha
Occup=     0.00000000
           1 -0.499244695891331     
           2  0.269102279606182     
           3  0.524636840945399     
           4 -2.120600891494774E-002
           5 -0.104351954853138     
           6 -0.396522546878324     
           7   1.18889409614084     
           8  2.553714953659097E-002
           9 -6.973898409067550E-002
          10  0.112944474990021     
          11 -0.277390917652986     
          12 -7.264129778662758E-003
          13  0.604704148200751     
          14 -0.563806389309610     
          15  0.399399039131500     
          16  4.008807521225388E-002
          17 -6.684237342576308E-003
          18  5.272536129570320E-002
          19 -8.841099491103853E-002
          20 -3.570542261504217E-003
          21  0.149229917018301     
