6
 energy: -15.161725637534 gnorm: 0.000548850050 xtb: 6.7.1 (edcfbbe)
O            0.23122295543815        1.05143613031401       -0.24671288203127
C           -0.02815528866791       -0.17024459968007       -0.22417010672983
O           -1.31698801937718       -0.53813368618107       -0.12927872705585
O            0.83171374070598       -1.05639332010975       -0.28450067595444
Na           2.12993838264010        0.44537031621781       -0.38231918331681
H           -1.84773177073913        0.26796515943908       -0.09495760682256
