[Molden Format]
[Title]
[Atoms] AU
C      1     6  0.16478046465913E+01  0.24725754897857E+01  0.20582492828688E+00
C      2     6 -0.10202273249180E+01  0.24207214414357E+01  0.14037439235366E+01
N      3     7 -0.21819147480737E+01 -0.42403889131027E-01  0.97965038859650E+00
C      4     6 -0.61081909826899E+00 -0.19962597121224E+01  0.21244059853050E+01
C      5     6  0.20572187125283E+01 -0.19444026612476E+01  0.92650018259080E+00
N      6     7  0.21819147480711E+01  0.42403919454781E-01 -0.97965040177731E+00
C      7     6  0.29702948128875E+00 -0.45039540484527E+00 -0.29291928493870E+01
C      8     6 -0.23710063893598E+01 -0.50223912225362E+00 -0.17312821831038E+01
H      9     1  0.31080219328969E+01  0.28194703841998E+01  0.16227940076039E+01
H     10     1  0.17980420249440E+01  0.39313391401798E+01 -0.12466933509938E+01
H     11     1 -0.22523093254703E+01  0.38526261267569E+01  0.57188148139047E+00
H     12     1 -0.94233159435367E+00  0.27407400723510E+01  0.34413632098076E+01
H     13     1 -0.53645245705644E+00 -0.16382786829065E+01  0.41558319730425E+01
H     14     1 -0.15417235578804E+01 -0.38136051888297E+01  0.18226704974045E+01
H     15     1  0.25086442420116E+01 -0.37348847384765E+01  0.41330569139621E-02
H     16     1  0.35139095527850E+01 -0.15595425990730E+01  0.23372824493780E+01
H     17     1  0.76357410167940E+00 -0.22537216175040E+01 -0.38184186997429E+01
H     18     1  0.45888610938151E+00  0.10334889453093E+01 -0.43547670658228E+01
H     19     1 -0.32867898907653E+01 -0.23324227806320E+01 -0.19998720730152E+01
H     20     1 -0.35914711660311E+01  0.95479087754860E+00 -0.25362054600138E+01
[GTO]
           1 0
 s           4   1.00000000000000     
   51.0493630955799      -0.163120632101274     
   8.79112274068875      -0.199110245810007     
  0.706404222589298       0.318820477536558     
  0.269228134134116       0.127065041842404     
 p           4   1.00000000000000     
   5.82636561408000       0.737164515452096     
   1.51068960187200       0.682163716148503     
  0.532564832880000       0.357830539292537     
  0.212023236906000       5.398303027584788E-002
 
           2 0
 s           4   1.00000000000000     
   51.0493630955799      -0.163120632101274     
   8.79112274068875      -0.199110245810007     
  0.706404222589298       0.318820477536558     
  0.269228134134116       0.127065041842404     
 p           4   1.00000000000000     
   5.82636561408000       0.737164515452096     
   1.51068960187200       0.682163716148503     
  0.532564832880000       0.357830539292537     
  0.212023236906000       5.398303027584788E-002
 
           3 0
 s           4   1.00000000000000     
   63.5940244669410      -0.192343884147216     
   10.9514172315237      -0.234781079249537     
  0.879993102573770       0.375937539017009     
  0.335387152965211       0.149828892718628     
 p           4   1.00000000000000     
   7.29650404814951       0.976586663156674     
   1.89187454507126       0.903722267303458     
  0.666944321108241       0.474049584615364     
  0.265522026741309       7.151606771501186E-002
 
           4 0
 s           4   1.00000000000000     
   51.0493630955799      -0.163120632101274     
   8.79112274068875      -0.199110245810007     
  0.706404222589298       0.318820477536558     
  0.269228134134116       0.127065041842404     
 p           4   1.00000000000000     
   5.82636561408000       0.737164515452096     
   1.51068960187200       0.682163716148503     
  0.532564832880000       0.357830539292537     
  0.212023236906000       5.398303027584788E-002
 
           5 0
 s           4   1.00000000000000     
   51.0493630955799      -0.163120632101274     
   8.79112274068875      -0.199110245810007     
  0.706404222589298       0.318820477536558     
  0.269228134134116       0.127065041842404     
 p           4   1.00000000000000     
   5.82636561408000       0.737164515452096     
   1.51068960187200       0.682163716148503     
  0.532564832880000       0.357830539292537     
  0.212023236906000       5.398303027584788E-002
 
           6 0
 s           4   1.00000000000000     
   63.5940244669410      -0.192343884147216     
   10.9514172315237      -0.234781079249537     
  0.879993102573770       0.375937539017009     
  0.335387152965211       0.149828892718628     
 p           4   1.00000000000000     
   7.29650404814951       0.976586663156674     
   1.89187454507126       0.903722267303458     
  0.666944321108241       0.474049584615364     
  0.265522026741309       7.151606771501186E-002
 
           7 0
 s           4   1.00000000000000     
   51.0493630955799      -0.163120632101274     
   8.79112274068875      -0.199110245810007     
  0.706404222589298       0.318820477536558     
  0.269228134134116       0.127065041842404     
 p           4   1.00000000000000     
   5.82636561408000       0.737164515452096     
   1.51068960187200       0.682163716148503     
  0.532564832880000       0.357830539292537     
  0.212023236906000       5.398303027584788E-002
 
           8 0
 s           4   1.00000000000000     
   51.0493630955799      -0.163120632101274     
   8.79112274068875      -0.199110245810007     
  0.706404222589298       0.318820477536558     
  0.269228134134116       0.127065041842404     
 p           4   1.00000000000000     
   5.82636561408000       0.737164515452096     
   1.51068960187200       0.682163716148503     
  0.532564832880000       0.357830539292537     
  0.212023236906000       5.398303027584788E-002
 
           9 0
 s           3   1.00000000000000     
   3.37022769753360       0.273591105889083     
  0.613891182214980       0.264605406538605     
  0.166142911484160       8.246594753408230E-002
 
          10 0
 s           3   1.00000000000000     
   3.37022769753360       0.273591105889083     
  0.613891182214980       0.264605406538605     
  0.166142911484160       8.246594753408230E-002
 
          11 0
 s           3   1.00000000000000     
   3.37022769753360       0.273591105889083     
  0.613891182214980       0.264605406538605     
  0.166142911484160       8.246594753408230E-002
 
          12 0
 s           3   1.00000000000000     
   3.37022769753360       0.273591105889083     
  0.613891182214980       0.264605406538605     
  0.166142911484160       8.246594753408230E-002
 
          13 0
 s           3   1.00000000000000     
   3.37022769753360       0.273591105889083     
  0.613891182214980       0.264605406538605     
  0.166142911484160       8.246594753408230E-002
 
          14 0
 s           3   1.00000000000000     
   3.37022769753360       0.273591105889083     
  0.613891182214980       0.264605406538605     
  0.166142911484160       8.246594753408230E-002
 
          15 0
 s           3   1.00000000000000     
   3.37022769753360       0.273591105889083     
  0.613891182214980       0.264605406538605     
  0.166142911484160       8.246594753408230E-002
 
          16 0
 s           3   1.00000000000000     
   3.37022769753360       0.273591105889083     
  0.613891182214980       0.264605406538605     
  0.166142911484160       8.246594753408230E-002
 
          17 0
 s           3   1.00000000000000     
   3.37022769753360       0.273591105889083     
  0.613891182214980       0.264605406538605     
  0.166142911484160       8.246594753408230E-002
 
          18 0
 s           3   1.00000000000000     
   3.37022769753360       0.273591105889083     
  0.613891182214980       0.264605406538605     
  0.166142911484160       8.246594753408230E-002
 
          19 0
 s           3   1.00000000000000     
   3.37022769753360       0.273591105889083     
  0.613891182214980       0.264605406538605     
  0.166142911484160       8.246594753408230E-002
 
          20 0
 s           3   1.00000000000000     
   3.37022769753360       0.273591105889083     
  0.613891182214980       0.264605406538605     
  0.166142911484160       8.246594753408230E-002
 
[MO]
Sym=     1a
Ene=  -0.659916163924994     
Spin= Alpha
Occup=     2.00000000
           1  0.194983610651503     
           2 -4.900048941047580E-002
           3 -8.729172314334288E-002
           4 -1.145424769865544E-002
           5  0.194983578472450     
           6  2.679869948241086E-002
           7 -8.581846856384352E-002
           8 -4.548748509920518E-002
           9  0.278168182287951     
          10  0.119747555606747     
          11  2.327188771954132E-003
          12 -5.376504864880308E-002
          13  0.194983585681396     
          14  1.231509611712921E-002
          15  7.044110531546728E-002
          16 -7.098225368591476E-002
          17  0.194983585964547     
          18 -6.348438300438010E-002
          19  6.896772495982872E-002
          20 -3.694966231884880E-002
          21  0.278168206812790     
          22 -0.119747559274061     
          23 -2.327177594586982E-003
          24  5.376505345999708E-002
          25  0.194983590289794     
          26 -1.214149792187280E-003
          27  1.611432262738727E-002
          28  9.945323594769347E-002
          29  0.194983589843574     
          30  7.458523798756431E-002
          31  1.758703550461500E-002
          32  6.542040797855359E-002
          33  3.463993263320508E-002
          34  3.464003114757585E-002
          35  3.463991996190845E-002
          36  3.464002291002679E-002
          37  3.463991269988148E-002
          38  3.464003508829113E-002
          39  3.463991139675406E-002
          40  3.464003633750602E-002
          41  3.464001927676814E-002
          42  3.463993140950460E-002
          43  3.463993197170167E-002
          44  3.464001782279038E-002
Sym=     2a
Ene=  -0.628024768101148     
Spin= Alpha
Occup=     2.00000000
           1  0.164019932108897     
           2  5.771507399679744E-002
           3 -8.407746352988849E-002
           4 -5.892637371458732E-002
           5 -0.164017971747572     
           6  7.962396840328409E-002
           7  8.674642564881260E-002
           8 -2.736832571797232E-003
           9 -0.387113110625844     
          10 -6.224690944012197E-002
          11 -1.209155968094480E-003
          12  2.794820488926638E-002
          13 -0.164019481957153     
          14  9.391614847124148E-002
          15 -6.744924678709868E-002
          16  2.242163936473150E-002
          17  0.164018374460444     
          18  4.342285666219182E-002
          19  7.011837869957728E-002
          20 -8.408487281173292E-002
          21  0.387113095899391     
          22 -6.224689461405786E-002
          23 -1.209126365682175E-003
          24  2.794820961216171E-002
          25  0.164018480029026     
          26  0.104870548998152     
          27  1.796294822270159E-002
          28  5.051628859186490E-002
          29 -0.164019379175919     
          30  3.246834396705809E-002
          31 -1.529331210260032E-002
          32 -0.112179756809676     
          33  4.604853370199097E-002
          34  4.604851154351578E-002
          35 -4.604793155154602E-002
          36 -4.604791479577622E-002
          37 -4.604832247931972E-002
          38 -4.604843539019932E-002
          39  4.604798613769084E-002
          40  4.604810334133634E-002
          41  4.604799085805832E-002
          42  4.604816180128979E-002
          43 -4.604843440862259E-002
          44 -4.604826194318018E-002
Sym=     3a
Ene=  -0.626149687004724     
Spin= Alpha
Occup=     2.00000000
           1 -0.222106580063700     
           2  1.683184745016411E-002
           3  2.154714579020434E-002
           4 -5.889440612636691E-002
           5 -0.222107716499318     
           6 -5.587081087802542E-002
           7  2.013460747982315E-002
           8 -2.625125333134195E-002
           9 -7.015710100170003E-007
          10 -7.597086664872763E-002
          11 -7.246103076469081E-002
          12 -0.172341377782651     
          13 -0.114424141891931     
          14 -3.716672611282385E-002
          15 -4.313384880066325E-002
          16 -3.451197310405291E-002
          17 -0.114424319094606     
          18  2.881113748807204E-004
          19 -4.240579723045908E-002
          20 -5.132851910190125E-002
          21  6.927180266610458E-007
          22 -7.597089369471220E-002
          23 -7.246100892265860E-002
          24 -0.172341427693240     
          25  0.336531768645025     
          26 -5.149237494145446E-002
          27 -1.192590796931776E-002
          28  3.224733206696302E-002
          29  0.336531011065167     
          30  5.866521056826429E-002
          31 -9.785711231208019E-003
          32 -1.721224003134386E-002
          33 -8.804248255605009E-002
          34 -4.928375084016288E-002
          35 -4.928426832804716E-002
          36 -8.804286294462542E-002
          37 -5.938047329022920E-002
          38 -1.136667170479655E-002
          39 -1.136694010981654E-002
          40 -5.938068530213444E-002
          41  0.108664675930687     
          42  9.940964592669908E-002
          43  0.108664514612246     
          44  9.940930998112131E-002
Sym=     4a
Ene=  -0.626149685724110     
Spin= Alpha
Occup=     2.00000000
           1  0.260359160874436     
           2 -6.026483083545695E-002
           3  9.146304965106607E-003
           4 -1.975257200668048E-002
           5  0.260359525830164     
           6  2.495904286003609E-002
           7  1.080249078922562E-002
           8 -5.801749813832583E-002
           9  9.200566647347728E-007
          10 -3.272989296477761E-002
          11  0.188309183532975     
          12 -6.474674206779528E-002
          13 -0.322529846164866     
          14 -4.438360470153020E-002
          15  9.073923954857335E-003
          16  4.285543445983434E-002
          17 -0.322530391576648     
          18  6.119127719785016E-002
          19  1.112583116235258E-002
          20 -4.545546097257711E-003
          21 -9.162106767386522E-007
          22 -3.272992765201534E-002
          23  0.188309137019389     
          24 -6.474683268702378E-002
          25  6.217007336772595E-002
          26 -1.573544751508723E-002
          27  6.492785079062764E-002
          28 -4.995911918760040E-003
          29  6.217144251631745E-002
          30  4.615351247222369E-003
          31  6.532337996858392E-002
          32 -1.413238080292053E-002
          33  6.395675058557698E-002
          34  9.702089695457974E-002
          35  9.702094993201019E-002
          36  6.395668325347430E-002
          37 -9.119166106007427E-002
          38 -0.108225469324227     
          39 -0.108225635407747     
          40 -9.119167836617363E-002
          41 -5.829530291152073E-003
          42  4.426856960673295E-002
          43 -5.828985870443860E-003
          44  4.426909087156149E-002
Sym=     5a
Ene=  -0.593572930634597     
Spin= Alpha
Occup=     2.00000000
           1  0.281247283649358     
           2  0.125336417560076     
           3 -2.718217164699761E-002
           4 -4.984185328359400E-002
           5 -0.281247414123637     
           6  0.119572954864756     
           7  3.194199052174888E-002
           8 -6.011941047398398E-002
           9 -1.001943753891975E-008
          10 -5.708501719516820E-002
          11 -0.228628230932714     
          12 -0.137037991159527     
          13  8.186858051939148E-002
          14 -5.663851286445357E-002
          15 -3.583441774003515E-002
          16 -3.227353720600708E-002
          17 -8.186776361173437E-002
          18 -1.465214664159773E-002
          19  3.444896105559547E-002
          20  6.428190930584886E-002
          21 -6.137616024363986E-008
          22  5.708488830098175E-002
          23  0.228628437885282     
          24  0.137037683196233     
          25 -0.199379559181090     
          26 -9.848244791648281E-002
          27  4.160271348585431E-002
          28  1.485155528659817E-002
          29  0.199378850122744     
          30 -7.513650181774566E-002
          31 -4.497670788112995E-002
          32  6.310089362084650E-002
          33  0.130020742716650     
          34  0.115609531928752     
          35 -0.115609754647804     
          36 -0.130020659412879     
          37  6.279481312786283E-003
          38  6.522143880223971E-002
          39 -6.522097977149628E-002
          40 -6.278948627448954E-003
          41 -0.109330558368012     
          42 -6.479972128908397E-002
          43  0.109330308696740     
          44  6.479925882231492E-002
Sym=     6a
Ene=  -0.593572927736159     
Spin= Alpha
Occup=     2.00000000
           1 -6.784551806758399E-002
           2 -3.835632794972537E-003
           3 -1.584994302059977E-002
           4  6.985071874737686E-002
           5  6.784453180805110E-002
           6 -5.524359438304484E-002
           7  1.470182303845569E-002
           8 -4.332481493282497E-002
           9  1.393737924142751E-009
          10 -9.605961706969349E-002
          11  0.148373711143987     
          12 -0.207525349687523     
          13 -0.277489795404762     
          14  0.122377647818218     
          15 -2.914124396454495E-002
          16 -5.213683407221462E-002
          17  0.277489957157746     
          18  0.119259889210716     
          19  3.383753461439809E-002
          20 -5.635498641124907E-002
          21  1.158226845555803E-008
          22  9.605968987768562E-002
          23 -0.148373391656211     
          24  0.207525530032716     
          25 -0.209644429250618     
          26 -9.489145251511398E-002
          27 -4.970220017758470E-002
          28  3.086296802769209E-002
          29  0.209645255589722     
          30 -8.766675095957374E-002
          31  4.615452426226924E-002
          32  5.110318951736112E-002
          33  2.432077183905822E-004
          34 -5.949690427694199E-002
          35  5.949639722456156E-002
          36 -2.437569161151508E-004
          37 -0.129869238069918     
          38 -0.112479355184501     
          39  0.112479626925173     
          40  0.129869190063666     
          41 -7.037231554932750E-002
          42 -0.112722813934940     
          43  7.037281715856496E-002
          44  0.112723114761030     
Sym=     7a
Ene=  -0.578359663349767     
Spin= Alpha
Occup=     2.00000000
           1 -0.137912857369610     
           2  5.719279328343865E-002
           3 -0.156223465650941     
           4 -8.664335480584437E-002
           5 -0.137912887857936     
           6 -9.765080043747951E-002
           7 -0.159232693095943     
           8 -1.712073378674397E-002
           9  0.283944429130473     
          10  1.951210210281470E-002
          11  3.791652088805824E-004
          12 -8.760689757575782E-003
          13 -0.137912849917415     
          14 -0.124044308964846     
          15  0.125516726794680     
          16 -6.358001659609278E-002
          17 -0.137912872302694     
          18  3.079924339719231E-002
          19  0.128525942478765     
          20 -0.133102755519837     
          21  0.283944433969672     
          22 -1.951210976143525E-002
          23 -3.791938891369851E-004
          24  8.760674132111172E-003
          25 -0.137912872154136     
          26  0.144273318252811     
          27  3.221141507241292E-002
          28  0.115462080999349     
          29 -0.137912848408311     
          30 -1.057025610134237E-002
          31  2.920206560773794E-002
          32  0.184984779407861     
          33 -9.295075360724581E-002
          34 -9.295063185028218E-002
          35 -9.295075093964943E-002
          36 -9.295063570262670E-002
          37 -9.295075850226892E-002
          38 -9.295061867855557E-002
          39 -9.295076051252241E-002
          40 -9.295063263429389E-002
          41 -9.295064628694281E-002
          42 -9.295075340371076E-002
          43 -9.295073456856064E-002
          44 -9.295064313446362E-002
Sym=     8a
Ene=  -0.542977525794177     
Spin= Alpha
Occup=     2.00000000
           1 -1.033720553821276E-002
           2  0.101135759773237     
           3 -9.839402799806361E-002
           4  0.191774694617336     
           5 -1.033675139669388E-002
           6  7.930698166241451E-002
           7 -9.881826271128795E-002
           8  0.201575618747080     
           9  4.882997321781047E-008
          10  9.145077745724156E-002
          11 -5.204987822707543E-002
          12  0.201429697615290     
          13 -7.753136069324809E-002
          14 -8.363606165695556E-002
          15  0.209869744856803     
          16  4.195793516993601E-002
          17 -7.753112294204118E-002
          18  8.008848598810796E-002
          19  0.213052002616816     
          20 -3.155160801358194E-002
          21 -3.370714696873291E-008
          22  9.145090567176456E-002
          23 -5.204796143634780E-002
          24  0.201430032574130     
          25  8.786835068599012E-002
          26 -0.155583408873868     
          27 -0.129250797970479     
          28 -0.103746554120084     
          29  8.786806160057842E-002
          30  2.996979903456281E-002
          31 -0.125645365324106     
          32 -0.187057221650498     
          33  0.123282066103770     
          34 -0.139512381061761     
          35 -0.139511756350256     
          36  0.123282850822172     
          37  1.715182035531194E-002
          38 -0.138880569843480     
          39 -0.138880808274965     
          40  1.715296977693065E-002
          41  0.122359538081471     
          42  1.559872866635387E-002
          43  0.122359827500173     
          44  1.559772675117901E-002
Sym=     9a
Ene=  -0.542977523944995     
Spin= Alpha
Occup=     2.00000000
           1 -9.549332388111950E-002
           2  6.724848883087085E-002
           3 -0.173038063522001     
           4 -0.127633939633671     
           5 -9.549354394868002E-002
           6 -0.134406669384861     
           7 -0.176957487465188     
           8 -3.709273569865916E-002
           9  1.865846111649682E-007
          10  1.774543246324207E-002
          11  0.221180686320092     
          12  4.909698162091159E-002
          13  5.669855516711757E-002
          14  0.149874631623753     
          15  3.848696064243665E-002
          16  0.175208165178084     
          17  5.669901416858730E-002
          18  3.014254052361987E-002
          19  3.615962551672234E-002
          20  0.228965990188258     
          21 -1.602155573646863E-007
          22  1.774467802976612E-002
          23  0.221181222547775     
          24  4.909529817808007E-002
          25  3.879443352431713E-002
          26 -9.241591659143768E-002
          27  0.198892787835735     
          28 -8.756707654572629E-002
          29  3.879481714500113E-002
          30 -1.049244876843985E-002
          31  0.200484610580521     
          32 -0.124349479807816     
          33 -8.918871397579517E-002
          34 -6.074096101392472E-002
          35 -6.074195916831988E-002
          36 -8.918816744244693E-002
          37  0.151191609721899     
          38 -6.217214091606905E-002
          39 -6.217090255700668E-002
          40  0.151191843418577     
          41 -9.045070080618588E-002
          42  0.151359836257787     
          43 -9.044985513604717E-002
          44  0.151360097443324     
Sym=    10a
Ene=  -0.529399607763177     
Spin= Alpha
Occup=     2.00000000
           1  0.123066110261204     
           2  7.994724765845680E-002
           3  0.159520678427657     
           4  2.531330372777385E-002
           5 -0.123066073971279     
           6  3.932654964941763E-002
           7 -0.157201795708555     
           8 -7.886718597775168E-002
           9  0.262383021797464     
          10  7.825735705868506E-002
          11  1.520738079021736E-003
          12 -3.513657475094133E-002
          13 -0.123066098228340     
          14  1.282755735839503E-002
          15  0.128690712784065     
          16 -0.125511846933408     
          17  0.123066098332421     
          18  0.106447271795143     
          19 -0.126371727222266     
          20  7.196026123730551E-002
          21 -0.262382665586328     
          22  7.825773657261054E-002
          23  1.520736794673276E-003
          24 -3.513675041981405E-002
          25  0.123066092211894     
          26 -7.482392613747660E-003
          27 -2.967182636266474E-002
          28 -0.177602667676314     
          29 -0.123066109729309     
          30  0.126756968818548     
          31  3.198818666661506E-002
          32  0.124050398890529     
          33  0.140433081025044     
          34  0.140433248527043     
          35 -0.140432840855268     
          36 -0.140433013241662     
          37 -0.140432981102165     
          38 -0.140433008207082     
          39  0.140433089881658     
          40  0.140433101913121     
          41  0.140433220861382     
          42  0.140432965848193     
          43 -0.140432878234789     
          44 -0.140433126343228     
Sym=    11a
Ene=  -0.529091358814498     
Spin= Alpha
Occup=     2.00000000
           1 -8.005708625172331E-003
           2 -0.215024840320955     
           3 -5.707227759785388E-002
           4  7.604825303813185E-002
           5 -8.005970859742135E-003
           6  0.201423631409288     
           7 -4.897903201853119E-002
           8 -0.110932121640566     
           9 -0.207017566083604     
          10  0.228629296624773     
          11  4.443229697823424E-003
          12 -0.102651472435559     
          13 -8.005940447996837E-003
          14  0.192550668688239     
          15  4.674951470173683E-002
          16 -0.126550619017021     
          17 -8.005757494226749E-003
          18 -0.223898068287558     
          19  3.865558873026525E-002
          20  6.042900146615942E-002
          21 -0.207017998708025     
          22 -0.228629167234021     
          23 -4.443232990419732E-003
          24  0.102651429577405     
          25 -8.005756518736747E-003
          26 -0.185749947342830     
          27  6.276625894356778E-003
          28  0.143992452905841     
          29 -8.005936706156737E-003
          30  0.230698857121748     
          31  1.436962069587320E-002
          32 -4.298708833473273E-002
          33 -8.861304576627033E-002
          34 -8.861247421962096E-002
          35 -8.861332175697233E-002
          36 -8.861274073117413E-002
          37 -8.861329164368548E-002
          38 -8.861270370478294E-002
          39 -8.861309368095868E-002
          40 -8.861246782489272E-002
          41 -8.861250324875555E-002
          42 -8.861305144861836E-002
          43 -8.861328003265036E-002
          44 -8.861270986847337E-002
Sym=    12a
Ene=  -0.485390217557012     
Spin= Alpha
Occup=     2.00000000
           1 -2.346294975404298E-007
           2  9.680533596727597E-002
           3 -8.216551546861153E-002
           4  0.212050200718500     
           5  2.417898398356725E-007
           6  9.680584553356997E-002
           7 -8.216678402390440E-002
           8  0.212051313833326     
           9  2.515662002925930E-007
          10  1.212825143091659E-006
          11 -6.298385355247998E-007
          12  3.972152107640287E-007
          13 -1.930008097136555E-007
          14 -7.428827286709767E-002
          15 -0.160752914123522     
          16 -0.172417891343306     
          17  2.320554729108737E-007
          18 -7.428725986845292E-002
          19 -0.160755350320321     
          20 -0.172416422151131     
          21 -2.485445926682667E-007
          22  6.515694135884714E-007
          23  5.541921157915510E-007
          24 -7.965766114094277E-007
          25 -3.204901705840252E-007
          26 -2.251608428429002E-002
          27  0.242921036710685     
          28 -3.963519734723727E-002
          29  2.729556046427561E-007
          30 -2.251553424681192E-002
          31  0.242919804438935     
          32 -3.963474261266469E-002
          33  0.166280346495280     
          34 -0.166280558651292     
          35 -0.166281431538816     
          36  0.166281629695140     
          37 -0.166281689512926     
          38  0.166280485861729     
          39  0.166281857194722     
          40 -0.166280673640746     
          41 -0.166281810588185     
          42  0.166281406809509     
          43 -0.166280484675881     
          44  0.166280910001813     
Sym=    13a
Ene=  -0.484923085746033     
Spin= Alpha
Occup=     2.00000000
           1  4.331007768010752E-003
           2 -8.573542820199287E-002
           3  8.484959403399601E-002
           4 -0.191811114832093     
           5 -4.332152893545007E-003
           6  8.912047285163288E-002
           7 -8.477849228597072E-002
           8  0.190291492620896     
           9  4.180039396578132E-009
          10  9.914143078243345E-002
          11 -7.216722323656306E-002
          12  0.217687845043231     
          13 -7.951119985684281E-002
          14  1.588935896203371E-002
          15  0.221478117605997     
          16 -3.819626324156329E-002
          17  7.951181410616291E-002
          18  4.624808651931648E-002
          19 -0.220265435390739     
          20  1.029948087928477E-002
          21  7.009855760556426E-009
          22 -9.914222625644172E-002
          23  7.216060373575443E-002
          24 -0.217689904024322     
          25 -8.384280486052670E-002
          26  3.622631708842020E-002
          27  0.137796107850704     
          28  0.174351579341237     
          29  8.384335746026989E-002
          30 -0.101747248103896     
          31 -0.139067789863242     
          32 -0.144931197653514     
          33 -0.146882973632010     
          34  0.160280369545593     
          35 -0.160276770885381     
          36  0.146884525605208     
          37 -4.003957683977179E-002
          38 -0.205840537542029     
          39  0.205836517321706     