[Molden Format]
[Title]
[Atoms] AU
O      1     8  0.38370581648815E+00  0.19611857468494E+01 -0.51140475425497E+00
C      2     6 -0.13983247325361E+00 -0.33543215289404E+00 -0.42582311463384E+00
O      3     8 -0.26104896175484E+01 -0.97347509383819E+00 -0.28620051573391E+00
O      4     8  0.14261068616165E+01 -0.20659704725546E+01 -0.45593180819562E+00
K      5    19  0.45096869749261E+01  0.83582772942009E+00 -0.61110034421959E+00
H      6     1 -0.35691775622288E+01  0.57786424301743E+00 -0.28323151516309E+00
[GTO]
           1 0
 s           4   1.00000000000000     
   69.1379619061966      -0.204787563700778     
   11.9061291327073      -0.249970231368273     
  0.956708277443407       0.400258802406396     
  0.364625204960737       0.159522066676936     
 p           4   1.00000000000000     
   8.21241932577816        1.13215567991868     
   2.12935769970981        1.04768407822548     
  0.750664482023609       0.549565082171590     
  0.298852465432831       8.290848659276662E-002
 
           2 0
 s           4   1.00000000000000     
   51.0493630955799      -0.163120632101274     
   8.79112274068875      -0.199110245810007     
  0.706404222589298       0.318820477536558     
  0.269228134134116       0.127065041842404     
 p           4   1.00000000000000     
   5.82636561408000       0.737164515452096     
   1.51068960187200       0.682163716148503     
  0.532564832880000       0.357830539292537     
  0.212023236906000       5.398303027584788E-002
 
           3 0
 s           4   1.00000000000000     
   69.1379619061966      -0.204787563700778     
   11.9061291327073      -0.249970231368273     
  0.956708277443407       0.400258802406396     
  0.364625204960737       0.159522066676936     
 p           4   1.00000000000000     
   8.21241932577816        1.13215567991868     
   2.12935769970981        1.04768407822548     
  0.750664482023609       0.549565082171590     
  0.298852465432831       8.290848659276662E-002
 
           4 0
 s           4   1.00000000000000     
   69.1379619061966      -0.204787563700778     
   11.9061291327073      -0.249970231368273     
  0.956708277443407       0.400258802406396     
  0.364625204960737       0.159522066676936     
 p           4   1.00000000000000     
   8.21241932577816        1.13215567991868     
   2.12935769970981        1.04768407822548     
  0.750664482023609       0.549565082171590     
  0.298852465432831       8.290848659276662E-002
 
           5 0
 s           4   1.00000000000000     
  0.248777478594916      -2.813527106587221E-002
  0.127619930264404      -4.330084751159855E-002
  3.898765064060293E-002  5.571561692271002E-002
  2.170764511081965E-002  1.417888743741005E-002
 p           4   1.00000000000000     
  0.595606232776694      -4.501238283622308E-003
  0.172688155142778      -9.541835644326863E-003
  3.013991075039399E-002  1.154860339922665E-002
  1.478940880683065E-002  3.027310123757604E-003
 
           6 0
 s           3   1.00000000000000     
   3.37022769753360       0.273591105889083     
  0.613891182214980       0.264605406538605     
  0.166142911484160       8.246594753408230E-002
 
[MO]
Sym=     1a
Ene=  -0.696423958476478     
Spin= Alpha
Occup=     2.00000000
           1 -0.137835026171959     
           2  6.130709513225233E-002
           3  7.132581765777202E-002
           4 -4.971048771200723E-003
           5 -0.295993693038384     
           6  0.162228497651023     
           7  5.254022743138435E-003
           8 -8.388209673894359E-003
           9 -0.693577834492281     
          10 -6.523727884106918E-002
          11 -7.588665710848885E-002
          12  5.140176392047142E-003
          13 -6.050615686047193E-002
          14  6.470781453389636E-002
          15 -3.255794603417732E-002
          16 -2.371908752075566E-003
          17  2.640946631304523E-002
          18 -8.040311038095049E-003
          19 -6.442419940246874E-004
          20  3.517599710441424E-004
          21 -0.134615712040124     
Sym=     2a
Ene=  -0.676270298851329     
Spin= Alpha
Occup=     2.00000000
           1 -0.443418936382525     
           2 -1.035102709862520E-002
           3  0.125212734492004     
           4 -3.083854938421476E-003
           5 -0.337405060209367     
           6 -0.205482259303349     
           7 -6.203885275260878E-002
           8  1.129196889672219E-002
           9  0.303219285439377     
          10 -0.113338643723234     
          11  8.472225393365574E-003
          12  5.241700820513532E-003
          13 -0.396670184791361     
          14  4.470226568541719E-002
          15 -0.123373746999784     
          16  8.039058401912752E-004
          17 -8.866505514432460E-003
          18  1.498883524119986E-002
          19  1.520023371241174E-003
          20 -5.333723635376985E-004
          21  8.419580356810803E-002
Sym=     3a
Ene=  -0.666162786342892     
Spin= Alpha
Occup=     2.00000000
           1  0.519147242636316     
           2 -5.654031160318595E-002
           3 -2.761517564706808E-002
           4  3.664139906842893E-003
           5 -5.238170817508456E-002
           6 -6.589341007734954E-002
           7  0.339709557014928     
           8 -5.838930698970706E-003
           9 -8.385703575910751E-002
          10 -6.429189949015339E-002
          11  0.109529826178327     
          12  1.860457576091283E-004
          13 -0.522247844233443     
          14  7.718557030432333E-002
          15 -2.573632048107694E-002
          16 -3.314984528806709E-003
          17  2.921527039342744E-003
          18 -2.387153351683520E-003
          19  1.200182725291553E-002
          20 -2.054004647825883E-004
          21  3.956392053598637E-002
Sym=     4a
Ene=  -0.598318271107054     
Spin= Alpha
Occup=     2.00000000
           1 -0.157547975357308     
           2 -9.890062127919443E-002
           3 -9.639283515166297E-002
           4  7.299281673608390E-003
           5  0.247812903155980     
           6 -0.247829551709596     
           7 -6.358369032305958E-002
           8  1.392809997610299E-002
           9 -0.192166516635050     
          10  0.545476034181668     
          11 -0.112195384028086     
          12 -2.371330997808783E-002
          13 -0.377279163204442     
          14 -0.206282910252681     
          15  4.358217198232876E-002
          16  8.723408155966322E-003
          17 -3.784439988902502E-002
          18  1.767592889017615E-002
          19  1.254585519278497E-002
          20 -6.995435515982307E-004
          21 -0.261324964192703     
Sym=     5a
Ene=  -0.552107536180669     
Spin= Alpha
Occup=     2.00000000
           1 -0.508240092178645     
           2 -9.403499338332280E-002
           3 -0.435979036117994     
           4  1.332035355936924E-002
           5  0.199956720995824     
           6  0.108476569183359     
           7  0.149539410677570     
           8 -1.312990519001043E-002
           9 -0.237375297630365     
          10 -9.594887906851780E-002
          11  0.452142505559400     
          12 -1.110051651035045E-002
          13 -0.100264438873825     
          14  5.092543394597231E-003
          15  0.212256587119936     
          16 -8.280488834328635E-003
          17 -8.480181780077893E-002
          18  5.780487093225679E-002
          19 -1.153976602513718E-002
          20 -1.792291977089003E-003
          21  0.222815888654804     
Sym=     6a
Ene=  -0.542157814075249     
Spin= Alpha
Occup=     2.00000000
           1 -4.549138454296870E-003
           2  1.661433395879501E-002
           3  5.398014760563750E-003
           4  0.347649335925402     
           5  8.706472559786487E-004
           6  2.727921174781298E-002
           7  1.557266455649990E-002
           8  0.535509877245908     
           9 -1.250417887876429E-003
          10  2.219521238872317E-002
          11  1.560701659585482E-002
          12  0.468990545339199     
          13 -1.442269957507348E-003
          14  1.742174621657431E-002
          15  1.110919597313675E-002
          16  0.346844244943763     
          17  3.160643865530021E-004
          18  1.225823360853649E-003
          19  4.972252182953281E-004
          20  2.824261780443759E-002
          21  1.197251128720816E-003
Sym=     7a
Ene=  -0.529108186199396     
Spin= Alpha
Occup=     2.00000000
           1  3.090364850031209E-002
           2 -0.281732741662293     
           3  0.146727640643509     
           4  1.019008718431427E-002
           5 -8.175066559550560E-002
           6 -0.303651248292285     
           7  5.852878689891482E-002
           8  1.378581933332246E-002
           9 -0.276500548278645     
          10  0.247510325487956     
          11  0.421342090327970     
          12 -2.351924778730759E-002
          13  0.427191133688098     
          14  0.195881669137157     
          15 -0.410625575941285     
          16  2.053696990018225E-003
          17  5.305694173473777E-002
          18 -1.068007989489430E-002
          19 -3.077154063490074E-002
          20  8.742936179747026E-004
          21  7.474799673099038E-002
Sym=     8a
Ene=  -0.475169153494206     
Spin= Alpha
Occup=     2.00000000
           1 -0.208638937676889     
           2 -0.116232604664501     
           3 -0.444938806460105     
           4  1.572129668304472E-002
           5 -2.047886039579027E-002
           6 -3.737710645834771E-002
           7  0.310127155915999     
           8 -7.171588452773117E-003
           9  0.237945317282499     
          10  8.625405052071185E-003
          11 -0.434303622183144     
          12  1.220826054222859E-002
          13  0.187985337037969     
          14  0.472235233045960     
          15 -0.189940393867865     
          16 -1.833835470313313E-002
          17  1.971455906656931E-002
          18  7.051255067680113E-003
          19 -7.604858596846059E-002
          20  1.383022522225426E-003
          21 -0.229899243765143     
Sym=     9a
Ene=  -0.439659934044195     
Spin= Alpha
Occup=     2.00000000
           1 -4.244809420559421E-004
           2  2.008740093527871E-002
           3  9.523677798151629E-003
           4  0.396839695348964     
           5 -1.007008458518382E-004
           6  6.592255428007610E-003
           7  4.056553098068438E-003
           8  0.139248637012310     
           9  2.565858276529004E-004
          10 -4.042390862550414E-002
          11 -2.350803885969778E-002
          12 -0.827911227515270     
          13 -1.275497628154950E-004
          14  1.916061399915233E-002
          15  9.787702874449524E-003
          16  0.368789970174252     
          17  1.057556657357927E-003
          18  1.544267774537994E-003
          19  6.770134858091791E-004
          20  2.870791115147507E-002
          21 -1.240287107836553E-004
Sym=    10a
Ene=  -0.403950544140088     
Spin= Alpha
Occup=     2.00000000
           1  3.708684119881354E-002
           2 -0.686368382569844     
           3 -4.961595688885756E-002
           4  2.871443497200160E-002
           5  3.522885196745208E-002
           6  6.533801944873240E-002
           7  2.114986033701007E-002
           8 -3.162239183290715E-003
           9 -7.192874494564618E-002
          10 -0.352740556338774     
          11 -0.254887985669918     
          12  2.344656835129489E-002
          13  5.134567065838913E-002
          14 -0.484549772094749     
          15 -0.229805465675108     
          16  3.727378792142744E-002
          17 -0.221312678710628     
          18 -3.266662464099947E-002
          19 -1.727204628331215E-002
          20  3.138229812220018E-003
          21  2.951057149730378E-002
Sym=    11a
Ene=  -0.402933289270501     
Spin= Alpha
Occup=     2.00000000
           1  8.949913630482807E-005
           2 -2.876819525810052E-002
           3 -1.691752212187931E-002
           4 -0.708629437029916     
           5 -3.418131910345423E-004
           6 -2.660475694819193E-005
           7 -2.036013648261678E-004
           8  1.090323832758748E-002
           9  6.075047012521802E-004
          10  2.467549005908513E-003
          11  1.967124263531276E-003
          12 -2.045383453109542E-002
          13 -9.866201485913342E-004
          14  3.955875290273570E-002
          15  2.260208758089022E-002
          16  0.711376518591175     
          17  2.098324880492884E-003
          18  4.457130164123207E-004
          19 -2.680859679698023E-004
          20 -2.921374085056670E-004
          21 -1.496274432633637E-004
Sym=    12a
Ene=  -0.386867715347155     
Spin= Alpha
Occup=     2.00000000
           1 -1.689079492965643E-002
           2 -0.563462246270006     
           3  0.348177721170830     
           4  1.964681532542736E-002
           5 -4.995930719657561E-003
           6  1.540227343103353E-002
           7 -6.409819575507889E-002
           8  8.857226143303107E-004
           9  2.775027488146470E-002
          10  4.839330515219709E-002
          11 -5.706763367238576E-002
          12 -9.776930970875908E-004
          13 -1.347909648064399E-002
          14  0.427440945782395     
          15  0.637305132824029     
          16 -3.902780336271577E-002
          17  1.947180856579177E-002
          18 -3.807979381312516E-003
          19  2.897741551014398E-002
          20 -6.566214767721667E-004
          21 -2.585994353379067E-002
Sym=    13a
Ene=  -0.306747498787052     
Spin= Alpha
Occup=     0.00000000
           1 -0.168152184929690     
           2 -0.172440396916193     
           3 -5.101556354682473E-002
           4  8.812347106001461E-003
           5  8.850833331832137E-003
           6 -9.435373689933933E-003
           7 -2.883293566584488E-003
           8 -1.320449987795462E-003
           9 -6.020388005785498E-002
          10 -0.114349963085740     
          11 -6.145918968372626E-002
          12  7.716432722938658E-003
          13 -0.167726854676222     
          14 -0.168668227241641     
          15 -4.349778161511308E-002
          16  8.544061524804695E-003
          17  0.968672670930945     
          18  0.219801373776468     
          19  5.909104815905842E-002
          20 -7.533832909963816E-003
          21  1.920199762285610E-002
Sym=    14a
Ene=  -0.158187650626051     
Spin= Alpha
Occup=     0.00000000
           1  1.251703753914657E-004
           2  2.049086371647616E-002
           3  1.055606772563816E-002
           4  0.391690531542494     
           5  2.246829189048869E-004
           6 -3.923024925790426E-002
           7 -2.116246163083326E-002
           8 -0.802428852429575     
           9 -4.003477225645537E-004
          10  1.470878788004991E-002
          11  7.973719013181835E-003
          12  0.287729136899694     
          13  2.787571102886448E-004
          14  2.122312081002606E-002
          15  1.124724431872775E-002
          16  0.408224870801092     
          17 -6.018950689869435E-004
          18  1.637581049410274E-002
          19  1.206530435499250E-002
          20  0.535268576984673     
          21 -2.260867840292660E-004
Sym=    15a
Ene=  -0.126496912751258     
Spin= Alpha
Occup=     0.00000000
           1  1.688900124694147E-004
           2  1.447459092194577E-002
           3  8.624358110528970E-003
           4  0.330877430399612     
           5  1.081932949688947E-003
           6 -2.082992944000248E-002
           7 -1.104813501872414E-002
           8 -0.410973276060954     
           9  1.277823774203954E-003
          10  7.863800503989153E-003
          11  5.353377026942782E-003
          12  0.189602585202919     
          13 -7.109332184305915E-005
          14  1.483553628162741E-002
          15  8.540278669973650E-003
          16  0.339994634458927     
          17 -4.991594130075908E-004
          18 -2.506196901377124E-002
          19 -1.928844230477553E-002
          20 -0.849911094831939     
          21 -6.907820564310278E-004
Sym=    16a
Ene=  -5.732308748751340E-002
Spin= Alpha
Occup=     0.00000000
           1 -0.153788389799450     
           2 -4.274304505115049E-003
           3 -9.268749920770758E-002
           4  2.091539070621516E-003
           5  3.826711671381998E-004
           6 -9.441160863130982E-003
           7  2.828684032177208E-002
           8 -4.111531476882626E-004
           9 -1.606426879518411E-002
          10  1.585720333439460E-002
          11 -6.520526399246396E-002
          12  1.028801457593486E-003
          13  0.130401595975214     
          14  5.068742033510057E-002
          15 -7.957400991026399E-002
          16  6.057301674356392E-004
          17  6.855963159417939E-003
          18 -0.288600978273465     
          19  0.966319578386674     
          20 -1.331209599134899E-002
          21  1.315341234576694E-002
Sym=    17a
Ene=   4.266800424499157E-002
Spin= Alpha
Occup=     0.00000000
           1  0.229528191452252     
           2 -5.394922934206594E-002
           3 -1.583940744469342E-002
           4  2.296559477814509E-003
           5 -9.580390961903446E-002
           6  5.998879857381061E-002
           7  5.843018445312128E-002
           8 -4.134211529073463E-003
           9  0.467729590706470     
          10 -5.107957894193968E-002
          11  0.324703598432976     
          12 -6.337214257186168E-003
          13  0.288482999355760     
          14 -0.105012548050907     
          15  3.213802199609998E-002
          16  3.578578796076941E-003
          17 -0.235683524821000     
          18  0.809012329471821     
          19  0.267620281810004     
          20 -2.957920236401853E-002
          21 -0.460654933493278     
Sym=    18a
Ene=   0.190877209276663     
Spin= Alpha
Occup=     0.00000000
           1 -0.206425315435352     
           2 -0.103148973442906     
           3  5.775216696964764E-002
           4  3.708804756905024E-003
           5 -0.247899972949203     
           6  0.252461769927617     
           7  0.201435570656325     
           8 -1.801655886856897E-002
           9  0.592854930646001     
          10 -0.118428640078432     
          11  0.614208281785956     
          12 -1.214651262848793E-002
          13 -7.636966366505238E-002
          14 -0.193535661843775     
          15  2.709561004438694E-002
          16  8.985260253941614E-003
          17  0.223625385835503     
          18 -0.588735088087442     
          19 -0.121912875913814     
          20  2.228157711942493E-002
          21 -0.991484563002505     
Sym=    19a
Ene=   0.246430013765487     
Spin= Alpha
Occup=     0.00000000
           1  0.159145973079660     
           2 -0.209054753965298     
           3 -0.304018152022301     
           4  1.855416900315654E-002
           5 -0.943202681263641     
           6  0.595986193557467     
           7  5.430794583357765E-002
           8 -3.165903337911037E-002
           9  0.252672658340493     
          10  0.839856978807359     
          11 -5.568634269853839E-002
          12 -3.958007500514889E-002
          13  6.909626129723269E-002
          14 -0.246617552671920     
          15  8.252192039634908E-002
          16  1.019179692136564E-002
          17  5.802805919591243E-002
          18 -3.199483522660115E-002
          19 -2.245151510130340E-002
          20  7.464251654735307E-004
          21  0.452189270523151     
Sym=    20a
Ene=   0.476120468138576     
Spin= Alpha
Occup=     0.00000000
           1  0.433951339425040     
           2  5.782672754475861E-002
           3 -0.656197116255643     
           4  1.432227203766627E-002
           5 -0.746265446710784     
           6 -0.933167123443331     
           7 -0.311320499891873     
           8  5.363170552215232E-002
           9 -0.216675927941315     
          10 -0.318660115780226     
          11  2.806948099598655E-002
          12  1.497402980146759E-002
          13  0.384767860753558     
          14 -0.213806227564991     
          15  0.576635670220732     
          16 -4.930434042510646E-003
          17  0.112793239529230     
          18 -0.164366950951180     
          19 -3.301168827963109E-002
          20  5.970042143061497E-003
          21 -0.166621519663340     
Sym=    21a
Ene=   0.642811309062549     
Spin= Alpha
Occup=     0.00000000
           1  0.519913759559891     
           2 -0.272328402583054     
           3 -0.525826931691802     
           4  2.689591583808059E-002
           5  9.805343308812978E-002
           6  0.361157356031252     
           7  -1.20738417940081     
           8  1.429514266980109E-002
           9  6.231048851555805E-002
          10 -0.102827864728516     
          11  0.269934566404002     
          12 -2.252630741459494E-003
          13 -0.611907242035177     
          14  0.545354618611631     
          15 -0.415702213335326     
          16 -1.535062266079273E-002
          17  3.905854962636720E-003
          18 -3.701153536053152E-002
          19  6.058488294103464E-002
          20  1.945943692445256E-005
          21 -0.136366439533600     
