8
 energy: -19.759463056557 gnorm: 0.000779497437 xtb: 6.7.1 (edcfbbe)
O           -1.02957683521517       -0.58767976755759        1.04771306075020
P           -0.00186812908289        0.01404393027602        0.04212627679022
O            0.49348128889133       -1.12921227762291       -0.91211675415492
K           -1.46363247094203       -2.34986508090846       -0.32456176567943
O           -0.69667997996872        1.13793438673730       -0.77617340393749
K           -1.17584949828476        2.39488928647976        1.01974294968412
O            1.23177796133791        0.61531022670101        0.77888437047804
K            2.64234766326433       -0.09542070410533       -0.87561473393081
