15
 energy: -26.173034155656 gnorm: 0.000376221292 xtb: 6.7.1 (edcfbbe)
O            2.72332842690599        0.54353863157729       -1.02975758036319
C            2.06067667658628       -0.12500053407583       -0.27511533176575
O            2.61450943250207       -1.06804199308895        0.50577281240233
C            0.59660484401097       -0.00598264130993       -0.10804432116483
C           -0.10612002960570       -0.81249808876323        0.78392235253913
C           -1.47517335026952       -0.66638978516470        0.90742658431396
C           -2.14691247898897        0.27844800476624        0.14731341990583
C           -1.45021530714628        1.08278693486142       -0.74145878982633
C           -0.08208542366278        0.94290662192577       -0.87064126811562
H            3.57128866062917       -1.09677877944876        0.35049366580816
H            0.42578776214752       -1.54477618054155        1.37088232000813
H           -2.02242085782808       -1.29055338255336        1.59837011100872
H           -3.21684126599181        0.38812835923841        0.24806712370329
H           -1.97645018394391        1.81783714022788       -1.33210501432349
H            0.48402309465511        1.55637569234929       -1.55512608413034
