8
 energy: -20.233757765418 gnorm: 0.000464872312 xtb: 6.7.1 (edcfbbe)
O           -1.11511516463039       -0.31083163821451        1.47303444206416
P           -0.02650984424921       -0.06905339202390        0.51093609069054
O           -0.07221844758819       -1.20582171232860       -0.70142368283646
O           -0.37195675125252        1.27811444414046       -0.40239600501307
O            1.41796386950818        0.05564550825694        0.87144778193702
K            2.28316864061545        0.35185572063328       -1.11949266555409
H           -0.89539051405910       -1.67542894433562       -0.56051256922754
H           -1.21994178834393        1.57552001387191       -0.07159339206052
