19
 energy: -25.922797579684 gnorm: 0.000414960889 xtb: 6.7.1 (edcfbbe)
C           -1.77725541593203        0.97973648154828       -0.98883732321093
N           -1.11312915804486        0.00381136751380       -0.16020576206537
C           -1.89549074868854       -0.75615048966443        0.78345311968807
C            0.24996821808468       -0.04279379989656       -0.11491698040940
C            1.05174786568144        0.75807020943064       -0.94562726852099
C            2.42495238557063        0.65063965995413       -0.86802611018050
N            3.06786630746632       -0.16761122413297       -0.04917953875750
C            2.31777865776834       -0.92284714742775        0.73845601505980
C            0.93837675389497       -0.90640450597166        0.75375071546049
H           -1.52255911842013        2.00327874525416       -0.69182708846145
H           -1.50522046497299        0.84372899908795       -2.03868327826054
H           -2.85419191084786        0.85746570280241       -0.90270921027096
H           -2.95355711493906       -0.60137734860879        0.58672670661944
H           -1.68988387605194       -0.45331491346705        1.81628444516910
H           -1.68696758956740       -1.82461904975181        0.68562338571038
H            0.61887508961135        1.45649928504558       -1.64183643584107
H            3.05442340963069        1.26191679517112       -1.50289587431494
H            2.86058223375350       -1.58399137386036        1.40268921187730
H            0.41368447600281       -1.55603739302676        1.43387154711771
