[Molden Format]
[Title]
[Atoms] AU
C      1     6  0.49846047116692E+01  0.13413249387642E+00  0.59817118427711E+00
C      2     6  0.36060472519263E+01 -0.23996704993987E+01  0.64823813020376E+00
C      3     6  0.17151024353971E+01 -0.27412355916777E+01 -0.15183642262423E+01
C      4     6 -0.80774194393796E+00 -0.15534581209514E+01 -0.96735075561701E+00
N      5     7 -0.26641719624843E+01 -0.30599803023133E+01 -0.71220447813442E+00
C      6     6 -0.51221016592550E+01 -0.20711884943921E+01 -0.95300041094479E-01
C      7     6 -0.49451116456626E+01  0.39402153495269E+00  0.13973124146679E+01
C      8     6 -0.32705042165696E+01  0.22222931765986E+01 -0.69487684596959E-01
N      9     7 -0.90952622062889E+00  0.10169587544838E+01 -0.75419608663339E+00
C     10     6  0.12579776552760E+01  0.26206875338879E+01 -0.11594914636997E+01
C     11     6  0.32388786547083E+01  0.24024275860916E+01  0.94440930153118E+00
H     12     1  0.59832332773026E+01  0.32420341024688E+00 -0.12008470627734E+01
H     13     1  0.64038193960656E+01  0.15162458260857E+00  0.20986266802436E+01
H     14     1  0.26148766076316E+01 -0.26218317936005E+01  0.24442467989685E+01
H     15     1  0.50179686895075E+01 -0.39008490366943E+01  0.52879272814565E+00
H     16     1  0.25078944540333E+01 -0.19928055560938E+01 -0.32705433854260E+01
H     17     1  0.13401513680224E+01 -0.47483417820804E+01 -0.17887316668687E+01
H     18     1 -0.61079688051347E+01 -0.35232922665281E+01  0.99894462329809E+00
H     19     1 -0.61931482686247E+01 -0.17715902877044E+01 -0.18456594707443E+01
H     20     1 -0.40839048214874E+01  0.16181424894817E-02  0.32317001384129E+01
H     21     1 -0.68060373305665E+01  0.12235396896590E+01  0.17024619567458E+01
H     22     1 -0.42608005700312E+01  0.28626775633622E+01 -0.17827109904032E+01
H     23     1 -0.28594350028257E+01  0.38883741416522E+01  0.10893052528081E+01
H     24     1  0.57220303943227E+00  0.45668725643422E+01 -0.12582677727847E+01
H     25     1  0.21392897237042E+01  0.21860656944262E+01 -0.29825469370597E+01
H     26     1  0.22680465538383E+01  0.22664270420065E+01  0.27607153896590E+01
H     27     1  0.43803586286940E+01  0.41223198207505E+01  0.96277742311691E+00
[GTO]
           1 0
 s           4   1.00000000000000     
   51.0493630955799      -0.163120632101274     
   8.79112274068875      -0.199110245810007     
  0.706404222589298       0.318820477536558     
  0.269228134134116       0.127065041842404     
 p           4   1.00000000000000     
   5.82636561408000       0.737164515452096     
   1.51068960187200       0.682163716148503     
  0.532564832880000       0.357830539292537     
  0.212023236906000       5.398303027584788E-002
 
           2 0
 s           4   1.00000000000000     
   51.0493630955799      -0.163120632101274     
   8.79112274068875      -0.199110245810007     
  0.706404222589298       0.318820477536558     
  0.269228134134116       0.127065041842404     
 p           4   1.00000000000000     
   5.82636561408000       0.737164515452096     
   1.51068960187200       0.682163716148503     
  0.532564832880000       0.357830539292537     
  0.212023236906000       5.398303027584788E-002
 
           3 0
 s           4   1.00000000000000     
   51.0493630955799      -0.163120632101274     
   8.79112274068875      -0.199110245810007     
  0.706404222589298       0.318820477536558     
  0.269228134134116       0.127065041842404     
 p           4   1.00000000000000     
   5.82636561408000       0.737164515452096     
   1.51068960187200       0.682163716148503     
  0.532564832880000       0.357830539292537     
  0.212023236906000       5.398303027584788E-002
 
           4 0
 s           4   1.00000000000000     
   51.0493630955799      -0.163120632101274     
   8.79112274068875      -0.199110245810007     
  0.706404222589298       0.318820477536558     
  0.269228134134116       0.127065041842404     
 p           4   1.00000000000000     
   5.82636561408000       0.737164515452096     
   1.51068960187200       0.682163716148503     
  0.532564832880000       0.357830539292537     
  0.212023236906000       5.398303027584788E-002
 
           5 0
 s           4   1.00000000000000     
   63.5940244669410      -0.192343884147216     
   10.9514172315237      -0.234781079249537     
  0.879993102573770       0.375937539017009     
  0.335387152965211       0.149828892718628     
 p           4   1.00000000000000     
   7.29650404814951       0.976586663156674     
   1.89187454507126       0.903722267303458     
  0.666944321108241       0.474049584615364     
  0.265522026741309       7.151606771501186E-002
 
           6 0
 s           4   1.00000000000000     
   51.0493630955799      -0.163120632101274     
   8.79112274068875      -0.199110245810007     
  0.706404222589298       0.318820477536558     
  0.269228134134116       0.127065041842404     
 p           4   1.00000000000000     
   5.82636561408000       0.737164515452096     
   1.51068960187200       0.682163716148503     
  0.532564832880000       0.357830539292537     
  0.212023236906000       5.398303027584788E-002
 
           7 0
 s           4   1.00000000000000     
   51.0493630955799      -0.163120632101274     
   8.79112274068875      -0.199110245810007     
  0.706404222589298       0.318820477536558     
  0.269228134134116       0.127065041842404     
 p           4   1.00000000000000     
   5.82636561408000       0.737164515452096     
   1.51068960187200       0.682163716148503     
  0.532564832880000       0.357830539292537     
  0.212023236906000       5.398303027584788E-002
 
           8 0
 s           4   1.00000000000000     
   51.0493630955799      -0.163120632101274     
   8.79112274068875      -0.199110245810007     
  0.706404222589298       0.318820477536558     
  0.269228134134116       0.127065041842404     
 p           4   1.00000000000000     
   5.82636561408000       0.737164515452096     
   1.51068960187200       0.682163716148503     
  0.532564832880000       0.357830539292537     
  0.212023236906000       5.398303027584788E-002
 
           9 0
 s           4   1.00000000000000     
   63.5940244669410      -0.192343884147216     
   10.9514172315237      -0.234781079249537     
  0.879993102573770       0.375937539017009     
  0.335387152965211       0.149828892718628     
 p           4   1.00000000000000     
   7.29650404814951       0.976586663156674     
   1.89187454507126       0.903722267303458     
  0.666944321108241       0.474049584615364     
  0.265522026741309       7.151606771501186E-002
 
          10 0
 s           4   1.00000000000000     
   51.0493630955799      -0.163120632101274     
   8.79112274068875      -0.199110245810007     
  0.706404222589298       0.318820477536558     
  0.269228134134116       0.127065041842404     
 p           4   1.00000000000000     
   5.82636561408000       0.737164515452096     
   1.51068960187200       0.682163716148503     
  0.532564832880000       0.357830539292537     
  0.212023236906000       5.398303027584788E-002
 
          11 0
 s           4   1.00000000000000     
   51.0493630955799      -0.163120632101274     
   8.79112274068875      -0.199110245810007     
  0.706404222589298       0.318820477536558     
  0.269228134134116       0.127065041842404     
 p           4   1.00000000000000     
   5.82636561408000       0.737164515452096     
   1.51068960187200       0.682163716148503     
  0.532564832880000       0.357830539292537     
  0.212023236906000       5.398303027584788E-002
 
          12 0
 s           3   1.00000000000000     
   3.37022769753360       0.273591105889083     
  0.613891182214980       0.264605406538605     
  0.166142911484160       8.246594753408230E-002
 
          13 0
 s           3   1.00000000000000     
   3.37022769753360       0.273591105889083     
  0.613891182214980       0.264605406538605     
  0.166142911484160       8.246594753408230E-002
 
          14 0
 s           3   1.00000000000000     
   3.37022769753360       0.273591105889083     
  0.613891182214980       0.264605406538605     
  0.166142911484160       8.246594753408230E-002
 
          15 0
 s           3   1.00000000000000     
   3.37022769753360       0.273591105889083     
  0.613891182214980       0.264605406538605     
  0.166142911484160       8.246594753408230E-002
 
          16 0
 s           3   1.00000000000000     
   3.37022769753360       0.273591105889083     
  0.613891182214980       0.264605406538605     
  0.166142911484160       8.246594753408230E-002
 
          17 0
 s           3   1.00000000000000     
   3.37022769753360       0.273591105889083     
  0.613891182214980       0.264605406538605     
  0.166142911484160       8.246594753408230E-002
 
          18 0
 s           3   1.00000000000000     
   3.37022769753360       0.273591105889083     
  0.613891182214980       0.264605406538605     
  0.166142911484160       8.246594753408230E-002
 
          19 0
 s           3   1.00000000000000     
   3.37022769753360       0.273591105889083     
  0.613891182214980       0.264605406538605     
  0.166142911484160       8.246594753408230E-002
 
          20 0
 s           3   1.00000000000000     
   3.37022769753360       0.273591105889083     
  0.613891182214980       0.264605406538605     
  0.166142911484160       8.246594753408230E-002
 
          21 0
 s           3   1.00000000000000     
   3.37022769753360       0.273591105889083     
  0.613891182214980       0.264605406538605     
  0.166142911484160       8.246594753408230E-002
 
          22 0
 s           3   1.00000000000000     
   3.37022769753360       0.273591105889083     
  0.613891182214980       0.264605406538605     
  0.166142911484160       8.246594753408230E-002
 
          23 0
 s           3   1.00000000000000     
   3.37022769753360       0.273591105889083     
  0.613891182214980       0.264605406538605     
  0.166142911484160       8.246594753408230E-002
 
          24 0
 s           3   1.00000000000000     
   3.37022769753360       0.273591105889083     
  0.613891182214980       0.264605406538605     
  0.166142911484160       8.246594753408230E-002
 
          25 0
 s           3   1.00000000000000     
   3.37022769753360       0.273591105889083     
  0.613891182214980       0.264605406538605     
  0.166142911484160       8.246594753408230E-002
 
          26 0
 s           3   1.00000000000000     
   3.37022769753360       0.273591105889083     
  0.613891182214980       0.264605406538605     
  0.166142911484160       8.246594753408230E-002
 
          27 0
 s           3   1.00000000000000     
   3.37022769753360       0.273591105889083     
  0.613891182214980       0.264605406538605     
  0.166142911484160       8.246594753408230E-002
 
[MO]
Sym=     1a
Ene=  -0.653967410934132     
Spin= Alpha
Occup=     2.00000000
           1  4.990455843075992E-002
           2 -2.469627146987452E-002
           3  9.312265628268151E-003
           4 -4.131647478783284E-003
           5  3.825618386883423E-002
           6 -1.063476357260125E-002
           7  1.628459109724352E-002
           8 -8.530179320238850E-003
           9  6.123572299643352E-002
          10 -2.396799597251602E-002
          11  3.237670469775616E-002
          12  1.313117250346630E-002
          13  0.224486045103459     
          14 -2.472285155657664E-002
          15  0.100230560367693     
          16  1.762043413056231E-002
          17  8.549259007750053E-002
          18  1.500362065762085E-002
          19  6.251382024394045E-002
          20  5.287963045617206E-003
          21  7.306575273203041E-002
          22  3.497034260071909E-002
          23  3.240450335965366E-002
          24  3.575203079810601E-003
          25  0.126607498324943     
          26  5.238462521301672E-002
          27  1.564382988536936E-002
          28 -4.189471577219029E-002
          29  0.282234177063748     
          30  9.238837597986724E-002
          31 -6.981455179205923E-002
          32 -1.561883865146232E-002
          33  0.468721879048423     
          34 -2.176154490935837E-002
          35  1.910893351563033E-002
          36  1.788328172102506E-002
          37  0.250619861545478     
          38 -7.755364501261544E-002
          39 -6.187578836798959E-002
          40  3.520960733837421E-002
          41  0.106737357725201     
          42 -4.013897227936421E-002
          43 -1.233726178440301E-002
          44 -3.375719754342744E-002
          45  1.271064717262358E-002
          46  8.074258810748801E-003
          47  1.063370230195823E-002
          48  5.097690415872685E-003
          49  1.721941596673219E-002
          50  7.404822659778130E-003
          51  7.182788351966387E-003
          52  1.435075972168341E-002
          53  3.043894353464887E-002
          54  2.141691009439690E-002
          55  6.338816198391048E-002
          56  7.046434370006729E-002
          57  6.761629094911779E-002
          58  5.593142612647894E-002
          59  2.986083019268061E-002
          60  2.112015261954140E-002
Sym=     2a
Ene=  -0.643837942970235     
Spin= Alpha
Occup=     2.00000000
           1  0.158495448638365     
           2 -5.432923433393027E-002
           3  2.585401858824979E-002
           4 -6.760453533834418E-003
           5  9.993753945698740E-002
           6 -1.060529855404142E-003
           7  4.008789223489729E-002
           8 -1.435661573078013E-002
           9  6.961299752729652E-002
          10  2.178428156394019E-002
          11  2.395494451150850E-002
          12  1.398964954239191E-002
          13 -7.232731260423284E-002
          14  0.106661565336781     
          15  4.156230062006142E-004
          16 -2.040920817369793E-002
          17 -0.121027424525905     
          18  1.370716801526042E-002
          19 -6.669796277749086E-002
          20 -1.206373273045112E-002
          21 -0.135921952009716     
          22 -4.609547181638251E-002
          23 -4.483823386453029E-002
          24 -8.849940140555023E-003
          25 -0.200102253799935     
          26 -4.900175332437556E-002
          27 -9.308504714755722E-003
          28  5.330025580279276E-002
          29 -0.229014576195497     
          30  2.431374047736673E-002
          31  8.052066394284907E-002
          32 -1.487394049718322E-002
          33  1.437801574115889E-002
          34  0.240553701466971     
          35  8.011609799885483E-002
          36 -4.339351992052547E-002
          37  0.333461858124414     
          38  2.111242008762666E-002
          39 -4.570096299565741E-002
          40  4.333298271151791E-002
          41  0.251980162135633     
          42 -3.979660073471551E-002
          43 -2.733736876424359E-002
          44 -6.370711226410540E-002
          45  4.400763336370558E-002
          46  3.392241265696479E-002
          47  2.426620695734468E-002
          48  1.977846636157678E-002
          49  2.751141319840987E-002
          50  1.087662385992252E-002
          51 -2.025008305783456E-002
          52 -3.031246924136767E-002
          53 -4.967598959676325E-002
          54 -4.423509199542627E-002
          55 -6.162572619669136E-002
          56 -4.549738141816257E-002
          57  8.704654098230236E-002
          58  9.983660089516232E-002
          59  6.451297087283764E-002
          60  6.354477176207116E-002
Sym=     3a
Ene=  -0.633505729440512     
Spin= Alpha
Occup=     2.00000000
           1  0.104137257002393     
           2 -2.441605932972886E-002
           3 -3.310952800316160E-002
           4 -3.900830921466621E-003
           5  0.171137518234218     
           6 -3.473861080445724E-002
           7  2.149729495323018E-002
           8 -3.758992711698145E-002
           9  0.256021850008374     
          10 -5.410481674415516E-002
          11  4.761190339625653E-002
          12  4.431761882470894E-002
          13  0.397042660986265     
          14  9.026651481739298E-003
          15 -2.797164107678335E-002
          16  3.515352363689200E-003
          17  0.208023618614218     
          18  8.772974278487060E-002
          19  9.169046970561011E-002
          20 -7.813108871089916E-003
          21  4.727033282552358E-002
          22  4.682171029939085E-002
          23 -7.977383161691104E-003
          24 -1.065666745725491E-002
          25 -4.659478989006603E-002
          26 -1.445057287386264E-002
          27 -4.755928586717034E-002
          28  8.134769720649089E-003
          29 -0.215440729648580     
          30 -4.720288313231060E-002
          31 -3.383185392299632E-002
          32  3.659919198517641E-003
          33 -2.405047507498123E-002
          34  4.689538263470965E-002
          35 -0.270603396369629     
          36 -2.985854368192000E-002
          37 -0.146020937938323     
          38  5.958807298168891E-002
          39 -4.531281120217440E-002
          40 -1.753601755882218E-002
          41 -9.092415360798819E-003
          42  3.915128340879052E-002
          43 -4.007558166597024E-002
          44  1.435226995657284E-002
          45  2.964199355041748E-002
          46  2.627439693122634E-002
          47  4.889226247080419E-002
          48  4.059452108770996E-002
          49  6.556794191529991E-002
          50  5.925612643090070E-002
          51  3.720937912636707E-003
          52  5.432574321485566E-003
          53 -1.140213851497671E-002
          54 -1.715069022174627E-002
          55 -6.750341604808834E-002
          56 -9.069958999236574E-002
          57 -8.147866881098974E-002
          58 -2.160709931197449E-002
          59 -4.962564108091103E-003
          60 -7.961178159132392E-003
Sym=     4a
Ene=  -0.624546655428824     
Spin= Alpha
Occup=     2.00000000
           1  0.342801139546890     
           2 -4.969834218293154E-002
           3  5.859273870001169E-003
           4  1.209981047642914E-002
           5  0.214659707183468     
           6  4.607131019776016E-002
           7  7.435327257750039E-002
           8  4.210434056262650E-004
           9  5.551963037075443E-003
          10  7.654342667164625E-002
          11 -1.176007272511418E-002
          12  3.002663030657454E-002
          13 -0.150657540913629     
          14 -2.396595197900355E-002
          15 -5.843139530726666E-002
          16  2.063697357882131E-002
          17  7.236037471255673E-003
          18 -6.017627832847077E-002
          19 -2.126126802358440E-003
          20  2.173909857509402E-002
          21  0.134417171823970     
          22  6.824524324010340E-003
          23  4.420151254711200E-002
          24  2.393729153409421E-002
          25  0.226150284225768     
          26  1.651908456505742E-002
          27  1.000106991771238E-002
          28 -3.448878181220962E-002
          29  0.144896210154641     
          30 -8.499181498442772E-002
          31 -2.387578652266368E-002
          32  4.966269921607867E-002
          33 -0.223545154697865     
          34 -0.104201199141827     
          35  3.580471240747300E-002
          36  6.051197692680081E-002
          37 -8.017222095222408E-002
          38  0.115657341440249     
          39  4.687642625205827E-002
          40  4.469866533865798E-002
          41  0.240897353804913     
          42  7.394238042883912E-002
          43 -6.258938424529717E-002
          44  3.860634339245475E-003
          45  0.100920951681966     
          46  0.106472528276987     
          47  5.883617810651316E-002
          48  6.233874254068330E-002
          49  3.458357394723049E-003
          50  1.025041737238485E-003
          51  3.347702665727874E-002
          52  3.758035556261063E-002
          53  6.481418742529016E-002
          54  7.061482061425893E-002
          55  4.850328380187770E-002
          56  4.883692131341576E-002
          57 -2.176095005159114E-002
          58 -2.177684070883339E-002
          59  7.092516249550858E-002
          60  7.975642423007477E-002
Sym=     5a
Ene=  -0.613138127778924     
Spin= Alpha
Occup=     2.00000000
           1  7.176421566813000E-002
           2  1.158708269962781E-003
           3 -0.123614449860916     
           4 -5.468672290200300E-003
           5  0.281111561576443     
           6 -7.331597959967604E-003
           7  7.984252423270591E-004
           8 -4.137983756554782E-002
           9  0.201424357830169     
          10  6.892326546829251E-002
          11  5.592753064304889E-003
          12  4.794867443734845E-002
          13 -6.124596734514389E-002
          14  0.119745563868297     
          15  2.652704086802998E-002
          16 -1.345240347858476E-002
          17 -0.236420436086579     
          18  6.462596699684729E-002
          19 -8.470899835436557E-002
          20 -2.325381651691365E-002
          21 -0.264766363581678     
          22 -6.487733052499524E-002
          23  1.887850082174029E-006
          24 -2.701734815006674E-003
          25 -9.322581793141892E-002
          26  2.683585041495424E-002
          27  9.911629035564340E-002
          28  1.264632075389974E-002
          29  0.190792496465892     
          30  6.026849255036468E-002
          31  3.189019741273041E-002
          32 -2.113921286281928E-002
          33  0.105116984305457     
          34 -8.911708010158277E-002
          35  6.931421301207510E-002
          36  1.376377165919631E-002
          37 -0.153449658238149     
          38 -9.898325411205094E-002
          39 -2.020913875368765E-002
          40 -3.601479004444206E-002
          41 -0.213207316922903     
          42  2.814265298821538E-002
          43 -4.345926810432987E-002
          44  3.812386615103674E-002
          45  2.236572171803361E-002
          46  2.387112782238067E-002
          47  8.041038041590630E-002
          48  9.679187683114082E-002
          49  6.241781110888504E-002
          50  5.784505361906095E-002
          51 -6.998082094232257E-002
          52 -6.962780937133901E-002
          53 -3.020172438056982E-002
          54 -2.549020187416346E-002
          55  6.660089283234359E-002
          56  7.891819661118843E-002
          57 -4.681753060288363E-002
          58 -5.635292451047066E-002
          59 -6.243953988191820E-002
          60 -8.802307180112412E-002
Sym=     6a
Ene=  -0.600558409682806     
Spin= Alpha
Occup=     2.00000000
           1 -0.219458419816849     
           2 -1.377162104602326E-002
           3 -7.848109332652381E-002
           4 -3.837785717031923E-002
           5  0.121115799326853     
           6 -7.551934320035859E-002
           7 -7.523354052890927E-002
           8 -6.818409181905331E-002
           9  0.258651932750401     
          10  3.871564524107247E-002
          11 -1.043736494565097E-002
          12  2.115133232904602E-002
          13 -7.306222883739648E-002
          14  0.115842151010149     
          15 -9.579170690047306E-002
          16 -2.248870284113335E-002
          17 -1.026627770142310E-002
          18 -5.356987764605781E-002
          19 -2.907532020476652E-002
          20  1.979594958330970E-002
          21  0.200018032454579     
          22 -3.166794492096835E-002
          23  4.612057091379433E-002
          24  4.724911158815783E-002
          25  0.261632814884792     
          26 -5.007494641356686E-002
          27 -3.774535968883075E-002
          28 -1.360485268694141E-003
          29 -3.024696873190897E-002
          30 -0.110507716550160     
          31  2.278523837577799E-002
          32  5.906326479922945E-002
          33 -0.151451320719207     
          34  0.157242321266361     
          35  0.100976996091204     
          36 -3.544186194380423E-002
          37  0.192348026537289     
          38 -2.290573282542376E-002
          39  1.682512871760585E-002
          40 -4.582715692115835E-002
          41 -0.150153982722488     
          42 -0.102279894860652     
          43  5.083056738282384E-002
          44 -5.480672113797802E-002
          45 -6.711554945231098E-002
          46 -0.101041817382539     
          47  3.417952142696730E-002
          48  4.762342337885687E-002
          49  9.364854922488715E-002
          50  8.947381554030226E-002
          51  7.453178312775199E-002
          52  6.616222446104041E-002
          53  8.938772294999141E-002
          54  0.114371791048245     
          55 -1.847704234445200E-004
          56  1.128886955653985E-002
          57  8.813194348524328E-002
          58  8.985016953205678E-002
          59 -5.803734007735410E-002
          60 -6.510354278439130E-002
Sym=     7a
Ene=  -0.592371138129769     
Spin= Alpha
Occup=     2.00000000
           1 -0.137390359009890     
           2 -2.595552988232725E-002
           3  0.126203296953788     
           4 -1.985589222184901E-003
           5 -0.171943825699291     
           6 -9.095152745035420E-002
           7 -4.281603722526016E-002
           8 -3.650649577962394E-002
           9  0.180592430502488     
          10 -0.102138849139544     
          11 -1.797918302569335E-002
          12 -2.570376223111385E-002
          13  0.145743537266940     
          14  4.839707001320830E-002
          15 -0.156061927872993     
          16 -1.994164863814293E-002
          17 -2.789928358685879E-003
          18  0.192520340268097     
          19 -1.293581052355463E-002
          20 -4.169154237493015E-002
          21 -0.266294262361136     
          22 -1.208549937457509E-002
          23  3.750207586176986E-002
          24  4.331808645596891E-003
          25  4.919118325049891E-002
          26  3.424158647601026E-002
          27  0.139444756421681     
          28  1.468762121055278E-002
          29  0.179513086143327     
          30 -8.242740513030844E-002
          31  4.536578379766663E-002
          32  5.812184649726093E-002
          33 -0.196690128743821     
          34 -7.049730608278545E-002
          35 -2.198656506211998E-002
          36  5.393115156455881E-002
          37 -7.079567341483601E-003
          38  0.128828325892981     
          39  8.019319065061341E-002
          40  6.394164499591518E-002
          41  0.219541130871356     
          42 -1.217697456310331E-002
          43  7.437039836870668E-002
          44 -2.186436475561426E-003
          45 -5.037133077570661E-002
          46 -6.229052588767730E-002
          47 -5.289094898784513E-002
          48 -7.937215631791586E-002
          49  5.178406541486135E-002
          50  8.069496338345251E-002
          51 -0.100569774013030     
          52 -9.012128578054555E-002
          53  2.036115656432666E-002
          54  3.381890512753792E-002
          55  7.503403243533188E-002
          56  0.105876626715404     
          57  2.473769426523615E-002
          58 -6.788391424057314E-003
          59  8.301683460699120E-002
          60  0.116543412621358     
Sym=     8a
Ene=  -0.585942434306456     
Spin= Alpha
Occup=     2.00000000
           1  1.757400281602127E-002
           2 -6.636866302676867E-003
           3  5.279725795133067E-002
           4  1.631142150160367E-003
           5 -0.118200062583386     
           6 -9.038970990549110E-003
           7  3.653434662523208E-002
           8  3.614668475852596E-003
           9 -4.791365600615743E-002
          10 -2.526698938980525E-002
          11  7.185155656232164E-002
          12 -2.310860871646193E-002
          13  1.955623260220756E-002
          14  0.144253552602462     
          15  0.233831545665622     
          16 -4.708278793018441E-003
          17 -0.370258666786150     
          18  1.326254826373234E-002
          19 -5.115515609896945E-002
          20  5.145800531201995E-003
          21 -8.714370263418167E-002
          22 -0.112580784036467     
          23  0.114570503671106     
          24  8.515563008692985E-002
          25  0.279743312941863     
          26 -4.061998203650508E-002
          27  2.010642085867773E-002
          28  4.008762137331310E-002
          29 -9.524036470432429E-002
          30 -0.109474255217153     
          31 -0.100516869233380     
          32  8.485161034498272E-002
          33  0.129208822333398     
          34  0.122513986652429     
          35 -0.231097936351666     
          36 -1.161413899082013E-002
          37 -8.228366593814605E-002
          38  3.120361310941351E-002
          39 -0.129554601454729     
          40  7.754837354418676E-003
          41  3.200102715542393E-002
          42  2.485630608911727E-002
          43 -4.125969484547031E-002
          44  1.131844255935835E-002
          45  5.954930040091708E-003
          46  4.700387846648351E-003
          47 -4.237057144060009E-002
          48 -6.343239188991194E-002
          49  4.541303346916434E-004
          50 -4.901104245445177E-002
          51 -1.397782673764042E-002
          52 -2.465683662245104E-002
          53  0.116332765125203     
          54  0.138110779190538     
          55 -6.403762442624340E-002
          56 -7.453463233000525E-002
          57 -0.120775084544942     
          58 -1.484860761772532E-002
          59  1.189420479249006E-002
          60  2.570099544934662E-004
Sym=     9a
Ene=  -0.565858472532801     
Spin= Alpha
Occup=     2.00000000
           1  0.239950786369562     
           2  0.115686905442597     
           3 -3.060109268611869E-002
           4 -5.172679749082516E-002
           5 -0.119760039390207     
           6  0.110798066954842     
           7  9.639370300347189E-002
           8  1.322323824657520E-002
           9 -0.101002636913120     
          10 -8.842515516088857E-002
          11  3.181731591806597E-002
          12 -6.618636032465583E-002
          13  9.703221838899809E-002
          14 -5.483926207733385E-002
          15 -0.101068765895210     
          16 -6.531910633971831E-002
          17  0.101959291939221     
          18  0.121770122784989     
          19  2.516964187170296E-002