[Molden Format]
[Title]
[Atoms] AU
O      1     8 -0.21072622585625E+01 -0.58738666709253E+00  0.27836316676343E+01
P      2    15 -0.50096345237351E-01 -0.13049199890122E+00  0.96552927858935E+00
O      3     8 -0.13647308708693E+00 -0.22786727914219E+01 -0.13254986578835E+01
O      4     8 -0.70289639007083E+00  0.24152862553470E+01 -0.76041824311610E+00
O      5     8  0.26795633679775E+01  0.10515477067092E+00  0.16467976397689E+01
K      6    19  0.43145634270852E+01  0.66491094737786E+00 -0.21155345364185E+01
H      7     1 -0.16920428461548E+01 -0.31661018460563E+01 -0.10592152452474E+01
H      8     1 -0.23053558679497E+01  0.29773013300761E+01 -0.13529190332696E+00
[GTO]
           1 0
 s           4   1.00000000000000     
   69.1379619061966      -0.204787563700778     
   11.9061291327073      -0.249970231368273     
  0.956708277443407       0.400258802406396     
  0.364625204960737       0.159522066676936     
 p           4   1.00000000000000     
   8.21241932577816        1.13215567991868     
   2.12935769970981        1.04768407822548     
  0.750664482023609       0.549565082171590     
  0.298852465432831       8.290848659276662E-002
 
           2 0
 s           4   1.00000000000000     
   4.99572725094895      -7.848378999131229E-002
   1.40717367027065      -0.158795553402872     
  0.252328121052452       0.190772681070961     
  0.124146465507327       5.350695336983156E-002
 p           4   1.00000000000000     
   6.71286585058286      -0.220902037941297     
  0.693707288951699       0.248633708227354     
  0.313531993145390       0.195527121452620     
  0.151568283911478       2.891512477691128E-002
 d           3   1.00000000000000     
  0.712797703517466       0.153501119911119     
  0.223498774710177       6.992737072477515E-002
  8.705828095292989E-002  9.316622838752151E-003
 
           3 0
 s           4   1.00000000000000     
   69.1379619061966      -0.204787563700778     
   11.9061291327073      -0.249970231368273     
  0.956708277443407       0.400258802406396     
  0.364625204960737       0.159522066676936     
 p           4   1.00000000000000     
   8.21241932577816        1.13215567991868     
   2.12935769970981        1.04768407822548     
  0.750664482023609       0.549565082171590     
  0.298852465432831       8.290848659276662E-002
 
           4 0
 s           4   1.00000000000000     
   69.1379619061966      -0.204787563700778     
   11.9061291327073      -0.249970231368273     
  0.956708277443407       0.400258802406396     
  0.364625204960737       0.159522066676936     
 p           4   1.00000000000000     
   8.21241932577816        1.13215567991868     
   2.12935769970981        1.04768407822548     
  0.750664482023609       0.549565082171590     
  0.298852465432831       8.290848659276662E-002
 
           5 0
 s           4   1.00000000000000     
   69.1379619061966      -0.204787563700778     
   11.9061291327073      -0.249970231368273     
  0.956708277443407       0.400258802406396     
  0.364625204960737       0.159522066676936     
 p           4   1.00000000000000     
   8.21241932577816        1.13215567991868     
   2.12935769970981        1.04768407822548     
  0.750664482023609       0.549565082171590     
  0.298852465432831       8.290848659276662E-002
 
           6 0
 s           4   1.00000000000000     
  0.248777478594916      -2.813527106587221E-002
  0.127619930264404      -4.330084751159855E-002
  3.898765064060293E-002  5.571561692271002E-002
  2.170764511081965E-002  1.417888743741005E-002
 p           4   1.00000000000000     
  0.595606232776694      -4.501238283622308E-003
  0.172688155142778      -9.541835644326863E-003
  3.013991075039399E-002  1.154860339922665E-002
  1.478940880683065E-002  3.027310123757604E-003
 
           7 0
 s           3   1.00000000000000     
   3.37022769753360       0.273591105889083     
  0.613891182214980       0.264605406538605     
  0.166142911484160       8.246594753408230E-002
 
           8 0
 s           3   1.00000000000000     
   3.37022769753360       0.273591105889083     
  0.613891182214980       0.264605406538605     
  0.166142911484160       8.246594753408230E-002
 
[MO]
Sym=     1a
Ene=  -0.696656149911102     
Spin= Alpha
Occup=     2.00000000
           1 -5.961263266768143E-002
           2 -2.193536368038050E-002
           3 -7.308786737186049E-003
           4  4.409702234425535E-002
           5 -0.347387935346796     
           6  2.097802649690936E-002
           7 -4.834512105030283E-003
           8  0.102349739774749     
           9  2.975536303402380E-002
          10 -1.633424229137800E-002
          11 -1.342112074264580E-002
          12  7.294905820231775E-003
          13 -6.072369196111111E-003
          14 -4.137574270907341E-003
          15 -0.514515323216644     
          16  3.247565967600952E-002
          17 -2.985413007765094E-002
          18 -2.594335638765462E-002
          19 -0.467015403028144     
          20  1.821332721346918E-002
          21  4.263417361789208E-002
          22 -2.007206451442541E-002
          23 -6.358179006957364E-002
          24  4.061822558957898E-002
          25  2.329112307232423E-003
          26  2.411700790207521E-002
          27  2.124676359091528E-002
          28  8.739307459976609E-003
          29  1.254837527698017E-003
          30  1.069306683144229E-004
          31 -9.374661980340281E-002
          32 -8.181277317562592E-002
Sym=     2a
Ene=  -0.687828722435770     
Spin= Alpha
Occup=     2.00000000
           1  4.310609057629228E-003
           2 -1.061461077668269E-003
           3  2.177104907713884E-002
           4  1.630817578612575E-004
           5  1.703038158767504E-002
           6 -1.581827803369213E-002
           7  0.124927697833813     
           8  1.144628567428207E-002
           9  5.515490771750758E-004
          10  1.268303625254339E-002
          11 -1.323458532971846E-002
          12 -7.181521261574416E-003
          13  7.966692968426866E-003
          14 -6.621824698420194E-002
          15 -0.552250165994310     
          16  4.300812710619741E-002
          17  4.802288208692386E-002
          18  1.067286719048317E-002
          19  0.590927523270729     
          20 -5.265769948869075E-002
          21  3.736105174663558E-002
          22  7.940792303727800E-003
          23  4.008610342813064E-003
          24 -3.993399553243872E-003
          25  1.558777347719445E-002
          26  7.896603009557982E-004
          27 -1.663569127405007E-003
          28 -1.084254516070497E-003
          29  8.410380433602985E-003
          30  7.157517516906067E-004
          31 -0.126325403568615     
          32  0.133479272935009     
Sym=     3a
Ene=  -0.653953464794551     
Spin= Alpha
Occup=     2.00000000
           1  0.263870396381679     
           2  6.283196867158231E-002
           3  1.352481636085003E-002
           4 -5.125819498063709E-002
           5  0.453894877244549     
           6  6.271172870318306E-002
           7 -2.290803685381115E-003
           8  6.817169881189199E-002
           9  4.986263549587888E-002
          10 -2.969615761458200E-002
          11 -2.016647788129688E-002
          12  1.202233819612540E-002
          13 -7.588855512784230E-003
          14 -1.645390660076178E-003
          15 -0.251775095601638     
          16  7.032752460965863E-002
          17  0.121287068461615     
          18  0.101768633734124     
          19 -0.258107071513895     
          20  9.471672878299663E-002
          21 -0.125101166662381     
          22  6.456256008497051E-002
          23  0.437396972326799     
          24 -8.818927677225627E-002
          25 -7.193681421601335E-003
          26 -2.582330103958181E-002
          27 -2.189214736766759E-002
          28  9.466958894200491E-003
          29  5.455785850532793E-004
          30  4.577987392497969E-003
          31 -0.110205128278301     
          32 -0.109051543646267     
Sym=     4a
Ene=  -0.629723936277508     
Spin= Alpha
Occup=     2.00000000
           1 -0.588356852509821     
           2 -2.088989137167209E-002
           3 -1.301921666352109E-002
           4  7.914825637663594E-002
           5 -0.104472250614686     
           6  0.260681983761485     
           7  4.032101576514663E-002
           8 -8.845254972917997E-002
           9  8.153141885620835E-003
          10  5.408153292629306E-003
          11 -1.356129517825014E-002
          12 -5.343462946686543E-003
          13  4.624898479373215E-002
          14  8.077882919865035E-003
          15  7.758237134940089E-002
          16  7.226996238979920E-002
          17  2.155104584558515E-003
          18 -4.076035072173260E-002
          19  7.887031894552293E-002
          20  6.592509591426611E-002
          21  2.425346060381752E-002
          22 -4.058556574032415E-002
          23  0.499672724138504     
          24  5.201111644561210E-003
          25  5.184276859744146E-003
          26 -3.736060645798930E-002
          27  4.114479129345951E-002
          28 -1.086275681103254E-002
          29 -1.910646908193993E-003
          30  8.978997777698191E-003
          31 -1.979015789176691E-002
          32 -1.761074274567109E-002
Sym=     5a
Ene=  -0.593541568007432     
Spin= Alpha
Occup=     2.00000000
           1  0.280290060970824     
           2 -1.758959479114576E-002
           3 -4.345434844054847E-003
           4  3.929635862230045E-002
           5 -0.229240728182142     
           6  1.110593173095324E-002
           7 -2.291197925243229E-002
           8  0.238722453412550     
           9  6.335725358869126E-002
          10 -2.537583792767158E-002
          11 -3.798141566101969E-002
          12  1.210955026580707E-002
          13  4.989602405342033E-003
          14  3.531147096166384E-003
          15  4.299445827920976E-002
          16 -0.187761340262088     
          17 -0.321404789087116     
          18 -9.630755269602484E-002
          19  3.535854366383424E-002
          20 -0.248734936307665     
          21  0.292836833060007     
          22  4.957791586861646E-003
          23  0.455291525337402     
          24  0.100819263832980     
          25  3.823822020191802E-003
          26  8.522684011511805E-002
          27  1.520686222882913E-002
          28 -1.412834131552529E-002
          29 -3.845227429144481E-003
          30  1.593971264080814E-002
          31  0.195434944006968     
          32  0.198099888554938     
Sym=     6a
Ene=  -0.556900829534456     
Spin= Alpha
Occup=     2.00000000
           1 -2.450656156969937E-002
           2 -6.447135583910211E-004
           3  2.996445771291410E-002
           4 -9.320911367009464E-003
           5  1.127933910502836E-002
           6 -3.904091063823928E-002
           7  0.222606523612104     
           8  1.475651588233468E-002
           9 -3.588155469912497E-003
          10  1.580373785907315E-002
          11 -1.221558238916065E-002
          12  4.356352013249605E-002
          13  2.228104619310065E-002
          14 -6.535998493932388E-002
          15 -0.178833564556306     
          16 -0.455968434136008     
          17 -0.247459451779673     
          18 -6.295340158386931E-002
          19  0.133759414812632     
          20  0.423560304970043     
          21 -0.222073718763703     
          22 -1.209895525077767E-002
          23  1.110715863535959E-002
          24 -6.307030148403918E-003
          25  0.109577268557696     
          26  1.556700920788285E-002
          27 -5.989055991294144E-003
          28  2.033239695232800E-003
          29  7.967454679270314E-003
          30 -2.010232440478420E-004
          31  0.285203340112678     
          32 -0.261289050356838     
Sym=     7a
Ene=  -0.547878853365862     
Spin= Alpha
Occup=     2.00000000
           1  0.422004640589909     
           2 -0.139130207375324     
           3 -3.857588743730364E-002
           4  0.179077131870903     
           5 -0.232854110580665     
           6  8.512411843699354E-002
           7  1.958275640379271E-002
           8  7.233597944732719E-003
           9 -2.090498502147775E-002
          10 -2.344069382566149E-002
          11  4.434567884713923E-002
          12  1.270590730491123E-002
          13 -7.939843362448376E-002
          14 -2.636599691029353E-002
          15  0.227802888331920     
          16  0.320314740133260     
          17 -1.709427309680991E-002
          18 -0.276994950743970     
          19  0.258499947526094     
          20  0.353719868925718     
          21  0.107599126926286     
          22 -0.295808096050952     
          23  8.371986999157925E-002
          24  8.572886703198655E-002
          25  1.730404025079054E-002
          26 -2.053796388414559E-002
          27  0.111291472613969     
          28 -5.575874128205745E-002
          29 -6.739881341050645E-003
          30  1.278305788030430E-002
          31 -0.137188549742412     
          32 -0.178787553094015     
Sym=     8a
Ene=  -0.526592005588144     
Spin= Alpha
Occup=     2.00000000
           1  4.155605308641539E-003
           2  1.382412083235038E-002
           3 -0.207877718372478     
           4 -3.213042327331155E-002
           5 -1.145155738621836E-002
           6  2.264639353490432E-002
           7 -0.354725414213192     
           8 -5.510934115116831E-002
           9  2.303464195985551E-003
          10  1.016628033799328E-002
          11 -1.246974453397883E-002
          12  2.315837561659403E-002
          13  1.761298072855051E-002
          14 -6.530366344850551E-002
          15 -0.179561443275376     
          16 -0.185653604892430     
          17  7.807634024761639E-002
          18  0.478876888767154     
          19  0.175358138775470     
          20  8.479942704839197E-002
          21  0.177970005910177     
          22 -0.471902300764224     
          23  2.631670187403811E-002
          24  4.767932563686172E-002
          25 -0.160157260594559     
          26 -1.368273098351310E-002
          27  1.119852842255677E-004
          28 -3.910635192395866E-003
          29  3.340015796532368E-002
          30  5.346935471785365E-003
          31  8.036226304717661E-002
          32 -7.536734700691532E-002
Sym=     9a
Ene=  -0.515339246913684     
Spin= Alpha
Occup=     2.00000000
           1 -0.124444845515015     
           2  0.225984723722343     
           3  3.394813985709624E-003
           4  4.599123768485684E-002
           5  0.162563868144565     
           6  0.194323880065571     
           7 -2.157885537090069E-002
           8  0.257021304226005     
           9 -8.361557118474344E-002
          10  0.113030615365145     
          11 -2.941504418040131E-002
          12 -1.290129283463991E-002
          13 -3.510593358118087E-002
          14  6.639903618712486E-003
          15  1.535057704017914E-002
          16  0.198114401688746     
          17 -0.343141134067223     
          18  0.137265631990386     
          19  5.055594897493083E-002
          20  0.221328179342531     
          21  0.338027341098578     
          22  0.137506993862433     
          23 -0.280347336008238     
          24 -0.401020590957441     
          25 -4.896638054581028E-002
          26  8.622678398339603E-003
          27 -4.389800465262670E-002
          28  1.220370007384029E-003
          29  4.211208757512399E-003
          30 -1.893076626879510E-002
          31  1.278616940128731E-002
          32 -2.162738605500591E-002
Sym=    10a
Ene=  -0.474477697626875     
Spin= Alpha
Occup=     2.00000000
           1  0.157228680306025     
           2 -0.351044533464109     
           3 -5.292903302319434E-002
           4  4.440602362758658E-002
           5 -0.101479630591249     
           6  1.255183118513863E-002
           7  2.773272356410366E-002
           8 -0.215978240222692     
           9  4.279102244287952E-002
          10  7.928581834866953E-002
          11 -0.122076840791549     
          12  1.537895179142435E-002
          13 -8.615338723959699E-002
          14  1.726448864948156E-002
          15 -1.857814533854134E-002
          16  0.115668751856091     
          17 -0.164686437894526     
          18  0.426855762049104     
          19 -1.973637400606537E-002
          20  0.166004409722773     
          21  0.113971522072673     
          22  0.457567234744413     
          23  5.488628450406025E-002
          24  0.226248891657244     
          25  6.993214055918733E-002
          26 -0.265756920215245     
          27 -4.590553477053188E-003
          28  2.601054777851673E-002
          29  6.226307345001013E-004
          30  3.630497897317425E-002
          31  2.791304502766151E-002
          32  2.968840157794801E-002
Sym=    11a
Ene=  -0.458864187989558     
Spin= Alpha
Occup=     2.00000000
           1  0.163867374880344     
           2 -0.194718577804258     
           3 -9.389135447423325E-002
           4  0.284035988466480     
           5 -1.710172411613990E-003
           6  0.231717533555627     
           7  1.058539184523912E-002
           8 -6.992999529824756E-002
           9  4.173283854950842E-004
          10 -4.181815113386990E-002
          11  4.140082274837482E-002
          12  6.210983248114692E-002
          13 -2.187952940430790E-002
          14  1.661361612973410E-002
          15 -4.676865058498293E-002
          16 -0.406704078315486     
          17  0.460853839835133     
          18 -0.176536513607054     
          19 -6.524734915214313E-002
          20 -5.201194729279619E-003
          21  0.297232747192048     
          22  0.134410207509334     
          23 -0.111924531836207     
          24 -0.343910988676137     
          25  6.365491467426498E-002
          26 -0.190102398934498     
          27 -0.102974540557097     
          28 -1.765339716209176E-002
          29  3.662056482137736E-002
          30 -1.978680286621767E-002
          31  5.965426943768233E-002
          32  0.110254399687861     
Sym=    12a
Ene=  -0.455013665060639     
Spin= Alpha
Occup=     2.00000000
           1  0.154917848107351     
           2 -0.215358544281567     
           3 -1.343484239408563E-002
           4  0.273764605851204     
           5 -6.094088837196755E-003
           6  0.205224389903330     
           7  5.113698911344187E-002
           8 -6.545591848328425E-002
           9  2.755753621053441E-002
          10 -3.892157688456499E-002
          11  1.136404067403058E-002
          12 -5.326791031855204E-002
          13 -2.195120461723247E-002
          14 -4.370704369345526E-002
          15 -5.679616158510393E-002
          16  8.076340267459317E-002
          17 -0.363290766173849     
          18  0.107357799997193     
          19 -2.897469235949856E-002
          20 -0.342936287344081     
          21 -0.486575934473754     
          22 -0.248119009854163     
          23 -9.605069775475809E-002
          24 -0.294501908142943     
          25 -0.120348244957277     
          26 -0.207798472248741     
          27 -0.102967991055869     
          28 -9.967977092118815E-003
          29 -3.897449404551127E-002
          30 -2.434815272335115E-002
          31  9.954427335730640E-002
          32  3.943383421182137E-002
Sym=    13a
Ene=  -0.412182921400396     
Spin= Alpha
Occup=     2.00000000
           1  3.164969836606928E-002
           2 -2.487372353140031E-002
           3  7.787580613016681E-002
           4  0.122821117665309     
           5 -1.730182927671473E-002
           6 -9.819286548164252E-004
           7  7.289375555998567E-002
           8  4.993594498534459E-003
           9 -4.437153027982644E-002
          10  1.156390840686731E-002
          11  3.280762187295913E-002
          12  0.102099146378190     
          13  2.307106493436999E-002
          14  7.813839275203606E-002
          15  5.342745969226168E-002
          16  0.100237239749482     
          17  1.483238299991478E-002
          18  0.326771720677863     
          19 -2.176659378879901E-002
          20 -0.123485445735583     
          21 -3.224325067417870E-003
          22 -0.219573032650296     
          23  1.597652304674400E-002
          24 -9.211694894514544E-002
          25  0.792270977378765     
          26  0.244073754882317     
          27 -2.637201353669782E-002
          28 -1.754703766952516E-003
          29  4.828309073644885E-002
          30  1.975931101934789E-002
          31 -5.159766427793665E-002
          32  3.271761295348915E-002
Sym=    14a
Ene=  -0.410634647191841     
Spin= Alpha
Occup=     2.00000000
           1 -0.126107097096020     
           2  1.583241703154370E-002
           3  7.176767719377576E-002
           4 -0.489915889655945     
           5  7.458258464623339E-002
           6 -2.433253548488759E-002
           7  1.014147249470650E-002
           8  1.253531476459857E-002
           9  0.101510881510625     
          10 -2.891050935707220E-002
          11 -7.260037215355294E-002
          12  5.159737430038153E-002
          13 -6.954145259988126E-002
          14  1.311899973028804E-002
          15 -4.711109718722058E-002
          16  2.636985390928528E-002
          17 -9.594555782214018E-002
          18 -0.199953916741381     
          19 -6.001051373087665E-002
          20 -7.180930039616304E-002
          21  0.151473064332064     
          22 -0.292105666152546     
          23 -7.330964236415526E-002
          24 -7.654742870388148E-002
          25  0.255360106812868     
          26 -0.628566581934852     
          27  8.314725474395322E-002
          28 -2.669894430101890E-002
          29  1.527812947741971E-002
          30 -6.411433357371321E-002
          31  1.863537708890156E-002
          32  3.312323799963758E-002
Sym=    15a
Ene=  -0.404843918842126     
Spin= Alpha
Occup=     2.00000000
           1  3.280628886562201E-003
           2  8.936767619260325E-002
           3 -0.839885474058014     
           4 -9.696761149639577E-002
           5 -1.425220734424936E-004
           6  8.609475516784405E-003
           7 -6.574757059970275E-002
           8 -9.363546523418847E-003
           9 -2.224036995600220E-002
          10  4.285728507979247E-002
          11 -2.061691512379028E-002
          12  0.107442894021260     
          13  2.742433608739035E-002
          14 -0.100180901645188     
          15  1.108077256445377E-002
          16  0.113654817129737     
          17 -7.934115014678479E-002
          18 -0.208680070998215     
          19 -9.961882983015979E-003
          20 -8.995676073162194E-002
          21 -0.156016045413446     
          22  0.182534142752577     
          23 -6.283146191178552E-005
          24 -2.639150908956115E-002
          25  0.175732156860060     
          26  3.266314407784763E-002
          27 -1.267555002005631E-003
          28  4.863909906067516E-003
          29 -5.128452162004593E-002
          30 -5.823339515786846E-003
          31 -2.447503988399847E-002
          32  2.374281412124250E-002
Sym=    16a
Ene=  -0.394781360502098     
Spin= Alpha
Occup=     2.00000000
           1 -1.898663699779407E-002
           2  0.602075820691910     
           3  4.880000470780811E-003
           4  0.478443108937858     
           5 -4.628436876244880E-003
           6 -9.535768406463845E-003
           7 -4.591338803970075E-003
           8  2.834195371472716E-002
           9 -8.312238202816409E-002
          10  9.020142366910627E-003
          11  7.410223966125347E-002
          12 -1.683013014363947E-003
          13 -7.410607442911570E-002
          14 -1.855237497600046E-002
          15 -2.588804745351993E-002
          16 -8.127797501502586E-002
          17  2.370952787693747E-002
          18  6.363619343838113E-002
          19 -2.569454504269977E-002
          20 -8.050096700873546E-002
          21 -6.724105026690592E-002
          22  4.674086253421842E-002
          23  1.806534303836849E-002
          24  0.337552031885308     
          25  9.972482198087294E-002
          26 -0.425373632678418     
          27  0.110089339823192     
          28  4.823283685655635E-002
          29  2.971462510741790E-003
          30  2.223736628508880E-002
          31  2.254378125212655E-002
          32  2.326770701153995E-002
Sym=    17a
Ene=  -0.323215435409297     
Spin= Alpha
Occup=     0.00000000
           1 -6.928856894043198E-004
           2  0.132510410119480     
           3  1.891824545051977E-002
           4 -4.904782278696559E-002
           5 -7.039895658742929E-003
           6 -8.162683583001382E-003
           7  1.417433256449161E-003
           8 -1.630597165567277E-002
           9  2.700344066761324E-002
          10 -2.032918589287976E-002
          11 -6.674254774733484E-003
          12  8.098331951443690E-003
          13 -1.817748468642130E-002
          14 -3.599835291467337E-003
          15  0.139657180522768     
          16  6.461821700151620E-002
          17  1.090778239984076E-002
          18 -4.248196551354132E-002
          19  0.135805149156090     
          20  6.734799209027940E-002
          21  1.538281591435763E-002
          22 -3.459218845523645E-002
          23  0.176401583778028     
          24  0.113114885915718     
          25  2.251006931671703E-002
          26 -0.108167512146692     
          27 -0.964189092489895     
          28 -0.200974517764491     
          29 -3.876884301297014E-002
          30  0.154516713321350     
          31 -3.650320834819298E-002
          32 -3.681676256315766E-002
Sym=    18a
Ene=  -0.102189396071710     
Spin= Alpha
Occup=     0.00000000
           1  1.009861771820557E-003
           2  1.325337060893352E-002
           3 -0.124826788542684     
           4 -1.595885118564617E-002
           5 -1.181104730508350E-003
           6 -5.557976993188464E-003
           7  4.998358592895291E-002
           8  8.143450452180609E-003
           9  5.063469604431591E-003
          10 -2.306927987065719E-002
          11  1.800581026622560E-002
          12 -3.134715350904072E-002
          13 -1.358257514579616E-002
          14  8.173224338026795E-002
          15  0.127719111881552     
          16 -1.277052470977088E-002
          17 -0.103801933292593     
          18  2.865621945353026E-003
          19 -0.125458503710009     
          20  2.884410365506968E-002
          21 -9.830867770396845E-002
          22 -2.964145151649243E-002
          23  1.646018263191492E-004
          24  1.512885587775374E-002
          25 -0.144214683456615     
          26 -1.676232046900591E-002
          27 -7.050790081178870E-004
          28 -0.104182533974052     
          29  0.978328974148237     
          30  0.104387965476197     
          31 -6.704948560130300E-002
          32  6.541409622899884E-002
Sym=    19a
Ene=  -8.278309326156875E-002
Spin= Alpha
Occup=     0.00000000
           1 -5.405513629669229E-002
           2  7.219433664195692E-002
           3 -5.217465960383970E-003
           4  0.137029146540813     
           5  6.560456249224572E-002
           6 -5.613961323158378E-002
           7  6.524455035696840E-005
           8 -0.113517026855705     
           9  0.105988456322413     
          10 -7.094996304540793E-002
          11 -3.503849327700465E-002
          12  2.009443253592876E-002
          13  1.985249993942798E-002
          14 -5.321273508960201E-003
          15 -0.211011827820781     
          16  0.126043867843175     
          17 -4.352273333388117E-002
          18  3.200266765603937E-002
          19 -0.205782069036556     
          20  0.106915019442313     
          21  5.401587580128076E-002
          22  3.793447311014898E-002
          23  3.612198720801671E-002
          24  8.230903028987678E-002
          25  2.699200870008786E-005
          26  0.109406273410037     
          27  2.676679532754293E-002
          28 -0.689515060103682     
          29  2.082305667396560E-004
          30 -0.666754553952960     
          31  0.112404254452592     
          32  0.109757250738135     
Sym=    20a
Ene=  -3.851663269842701E-002
Spin= Alpha
Occup=     0.00000000
           1  0.255683368889751     
           2  0.239417234559531     
           3  5.139664419532418E-002
           4 -0.189273317907642     
           5 -0.620095351487021     
           6 -2.683417886334546E-002
           7 -1.882172075880192E-002
           8  0.131958922545663     
           9  9.693498210141892E-002
          10 -8.082055731788107E-002
          11 -1.611442478353784E-002
          12  2.163520944928199E-002
          13  2.160397961495510E-002
          14 -7.950258819568618E-003
          15  0.434348358887886     
          16 -0.103335139828506     
          17  0.134492197934513     
          18  0.271201138016225     
          19  0.434329870531242     
          20 -5.152990685025498E-002
          21 -0.198680526074971     
          22  0.247515003487996     
          23  0.336852005634195     
          24 -0.303189504295721     
          25 -2.391727043870184E-002
          26 -9.167946949962127E-002
          27 -6.387707720479460E-002
          28  0.264987782104006     
          29  8.407320255986347E-002
          30 -0.527482888491627     
          31 -0.200193266105471     
          32 -0.202521138229561     
Sym=    21a
Ene=  -1.122924486661887E-003
Spin= Alpha
Occup=     0.00000000
           1  3.638068133965357E-004
           2 -4.534538908672281E-002
           3  0.410286133330340     
           4  4.899216630975001E-002
           5 -4.151329082559790E-003
           6  0.106321998535179     
           7 -0.923750229556195     
           8 -0.111846594217747     
           9  2.021308245085496E-002
          10  5.212235876168082E-002
          11 -7.233544121253578E-002
          12 -9.326170444665220E-002
          13  2.966384792803654E-002