[Molden Format]
[Title]
[Atoms] AU
O      1     8  0.19905398142138E-02  0.18359850542392E+01 -0.57081522418224E+00
C      2     6 -0.21293843504031E-02 -0.51707478123421E+00  0.16013428787795E+00
O      3     8 -0.20880499286098E+01 -0.16474645519701E+01  0.44799145892599E+00
Cs     4    55 -0.55751406301210E+01  0.93919785834878E+00 -0.45890744290264E+00
O      5     8  0.20798034404157E+01 -0.16184554363658E+01  0.56495257987441E+00
Cs     6    55  0.55835259628514E+01  0.10078118569811E+01 -0.14335565959312E+00
[GTO]
           1 0
 s           4   1.00000000000000     
   69.1379619061966      -0.204787563700778     
   11.9061291327073      -0.249970231368273     
  0.956708277443407       0.400258802406396     
  0.364625204960737       0.159522066676936     
 p           4   1.00000000000000     
   8.21241932577816        1.13215567991868     
   2.12935769970981        1.04768407822548     
  0.750664482023609       0.549565082171590     
  0.298852465432831       8.290848659276662E-002
 
           2 0
 s           4   1.00000000000000     
   51.0493630955799      -0.163120632101274     
   8.79112274068875      -0.199110245810007     
  0.706404222589298       0.318820477536558     
  0.269228134134116       0.127065041842404     
 p           4   1.00000000000000     
   5.82636561408000       0.737164515452096     
   1.51068960187200       0.682163716148503     
  0.532564832880000       0.357830539292537     
  0.212023236906000       5.398303027584788E-002
 
           3 0
 s           4   1.00000000000000     
   69.1379619061966      -0.204787563700778     
   11.9061291327073      -0.249970231368273     
  0.956708277443407       0.400258802406396     
  0.364625204960737       0.159522066676936     
 p           4   1.00000000000000     
   8.21241932577816        1.13215567991868     
   2.12935769970981        1.04768407822548     
  0.750664482023609       0.549565082171590     
  0.298852465432831       8.290848659276662E-002
 
           4 0
 s           6   1.00000000000000     
  0.871384393081402       2.927485381141454E-003
  0.408367547993029       1.924695693896249E-002
  0.119261314025015      -0.109361626933912     
  7.474130174847869E-002 -2.312431666485147E-002
  4.482360753090270E-002  9.251361930431430E-002
  2.833459663667891E-002  1.783029199432705E-002
 p           6   1.00000000000000     
  0.454478007998119       1.480134775929224E-003
  9.468140958507693E-002 -9.604165823657656E-003
  5.540640368783095E-002 -8.683583731125322E-003
  3.112632050446517E-002  8.725800668959914E-003
  2.009767297137697E-002  7.282959289784916E-003
  1.277418620059860E-002  6.681808014904440E-004
 
           5 0
 s           4   1.00000000000000     
   69.1379619061966      -0.204787563700778     
   11.9061291327073      -0.249970231368273     
  0.956708277443407       0.400258802406396     
  0.364625204960737       0.159522066676936     
 p           4   1.00000000000000     
   8.21241932577816        1.13215567991868     
   2.12935769970981        1.04768407822548     
  0.750664482023609       0.549565082171590     
  0.298852465432831       8.290848659276662E-002
 
           6 0
 s           6   1.00000000000000     
  0.871384393081402       2.927485381141454E-003
  0.408367547993029       1.924695693896249E-002
  0.119261314025015      -0.109361626933912     
  7.474130174847869E-002 -2.312431666485147E-002
  4.482360753090270E-002  9.251361930431430E-002
  2.833459663667891E-002  1.783029199432705E-002
 p           6   1.00000000000000     
  0.454478007998119       1.480134775929224E-003
  9.468140958507693E-002 -9.604165823657656E-003
  5.540640368783095E-002 -8.683583731125322E-003
  3.112632050446517E-002  8.725800668959914E-003
  2.009767297137697E-002  7.282959289784916E-003
  1.277418620059860E-002  6.681808014904440E-004
 
[MO]
Sym=     1a
Ene=  -0.600728616559170     
Spin= Alpha
Occup=     2.00000000
           1 -0.563129744875845     
           2  9.870175573032229E-005
           3  9.828019214436157E-002
           4 -3.054331590032579E-002
           5 -0.390829295083278     
           6 -3.853797962602777E-004
           7 -8.655366506330574E-002
           8  2.689141734829794E-002
           9 -0.263949500897939     
          10 -7.165705183648188E-002
          11 -6.480482519048317E-002
          12  1.795164504311004E-002
          13 -5.292965444820570E-003
          14 -2.017506154857234E-002
          15 -1.455234439204887E-003
          16 -1.521361699657822E-004
          17 -0.264762212238921     
          18  7.145118090691002E-002
          19 -6.389490692113650E-002
          20  2.199456197480851E-002
          21 -5.223433954733122E-003
          22  2.016022693848914E-002
          23 -1.187922742814574E-003
          24  9.823422425659280E-004
Sym=     2a
Ene=  -0.590197039075102     
Spin= Alpha
Occup=     2.00000000
           1  7.395617598172127E-003
           2 -7.885697326939337E-002
           3 -3.520490385228337E-004
           4 -2.273479226213512E-003
           5 -1.616414104410604E-003
           6 -0.313349532863532     
           7  1.467708993675687E-003
           8 -9.926186954286537E-003
           9  0.548693705627201     
          10 -4.272785416118204E-003
          11  5.139424833631980E-002
          12 -1.607054307646599E-002
          13  6.369668872893681E-002
          14  4.306697449473444E-002
          15 -1.415170633128876E-002
          16  5.685034537803933E-003
          17 -0.559210327621539     
          18 -2.782457668018304E-003
          19 -5.086943907467977E-002
          20  1.569491959966826E-002
          21 -6.363652973501381E-002
          22  4.292341872457101E-002
          23  1.498761885042603E-002
          24 -3.349227131977971E-003
Sym=     3a
Ene=  -0.589107007246859     
Spin= Alpha
Occup=     2.00000000
           1 -0.536329015030752     
           2 -1.095591876499319E-003
           3 -2.094870910012649E-002
           4  6.456350868286579E-003
           5  0.147108493371978     
           6 -4.601250323666483E-003
           7 -0.275216573201675     
           8  8.533720778675202E-002
           9  0.422014919230866     
          10  7.017100325210060E-002
          11 -1.665213897845209E-002
          12  7.309611671553494E-003
          13 -8.686494612073051E-004
          14 -8.205044908295775E-003
          15 -1.229617953053628E-002
          16  3.572003045238647E-003
          17  0.407546206508142     
          18 -7.032843489412319E-002
          19 -1.900246829533032E-002
          20  3.792227773730662E-003
          21 -2.370007837030927E-003
          22  9.191102036971887E-003
          23 -1.178504855106824E-002
          24  3.939254631101963E-003
Sym=     4a
Ene=  -0.497207709978780     
Spin= Alpha
Occup=     2.00000000
           1 -0.352997019416762     
           2 -6.318250199814108E-004
           3 -0.377234172316590     
           4  0.117168677982686     
           5  0.370418429842751     
           6  1.578780184648112E-004
           7  5.102054020698534E-002
           8 -1.585010858130689E-002
           9 -0.359418459735217     
          10  0.283036809367329     
          11  0.165966565621148     
          12 -4.298681202789100E-002
          13 -7.347213570169907E-002
          14 -2.451876620251451E-002
          15  1.475264752040004E-003
          16 -1.184048448899314E-003
          17 -0.359466120458092     
          18 -0.282601594910227     
          19  0.162156142662491     
          20 -5.889889080485892E-002
          21 -7.327949336782533E-002
          22  2.446319107738357E-002
          23  1.773762993268459E-003
          24  2.002311173112158E-004
Sym=     5a
Ene=  -0.452716208287753     
Spin= Alpha
Occup=     2.00000000
           1 -3.455854732572169E-005
           2 -1.159284187371113E-002
           3  0.119148302825965     
           4  0.383603303513044     
           5  4.184642303766387E-005
           6 -1.553485500616529E-002
           7  0.159702405655236     
           8  0.514095569474303     
           9 -6.679887582915795E-007
          10 -1.106100422502284E-002
          11  0.113183821770224     
          12  0.364415731005192     
          13  3.493039589701715E-005
          14 -7.646318240522092E-004
          15  7.945669497788910E-003
          16  2.559358138318234E-002
          17 -2.426985183104489E-006
          18 -1.097818170750762E-002
          19  0.113238259444670     
          20  0.364574163840635     
          21  2.377184169549667E-005
          22 -7.751332862914083E-004
          23  7.939918958562780E-003
          24  2.557037522612477E-002
Sym=     6a
Ene=  -0.447373621332599     
Spin= Alpha
Occup=     2.00000000
           1 -0.317332577194392     
           2 -1.214865047557262E-003
           3 -0.450612118057072     
           4  0.139950693684284     
           5 -3.087973610776741E-002
           6  1.183974443925542E-004
           7  0.355809540055867     
           8 -0.110546696626061     
           9  0.203810167943607     
          10 -0.382307780694512     
          11  0.113902311424542     
          12 -4.698127169163983E-002
          13  2.460762046051177E-002
          14 -2.907565063496236E-002
          15 -3.083419806400655E-002
          16  8.697012608781160E-003
          17  0.204525263864846     
          18  0.383645285976546     
          19  0.118405762445664     
          20 -2.523098936250133E-002
          21  2.519324162935366E-002
          22  2.877955826166398E-002
          23 -3.048435619818753E-002
          24  1.033694281421809E-002
Sym=     7a
Ene=  -0.441032961522442     
Spin= Alpha
Occup=     2.00000000
           1  4.394950003769663E-004
           2 -0.351371375483136     
           3 -1.928593810222935E-003
           4 -1.001733414649566E-002
           5  1.203311241793648E-004
           6 -0.363324528733098     
           7 -2.968339233234564E-003
           8 -1.005462061423749E-002
           9 -0.308640028565179     
          10  0.302532199793238     
          11  0.338471058005162     
          12 -9.593709471539195E-002
          13 -7.975690761272455E-002
          14 -2.978670783077692E-002
          15  3.876132319050830E-002
          16 -1.292446381376807E-002
          17  0.307964931123050     
          18  0.300232170610559     
          19 -0.334631919607240     
          20  0.112969194315744     
          21  7.973334336937213E-002
          22 -3.002661518146782E-002
          23 -3.905162218337793E-002
          24  1.121055229782481E-002
Sym=     8a
Ene=  -0.343418117388246     
Spin= Alpha
Occup=     2.00000000
           1  1.183591124460317E-004
           2  0.771704055455502     
           3  5.315572114130109E-003
           4  2.163506199925431E-002
           5  1.343355992768143E-005
           6 -0.135084203616090     
           7 -9.570608306121853E-004
           8 -3.780559536653023E-003
           9  6.387935816762158E-002
          10  0.318314621150389     
          11  1.624422963891045E-002
          12  4.799397689533857E-003
          13 -0.316935912265368     
          14 -4.297459696543190E-002
          15 -6.316931292118497E-003
          16  7.024888182556121E-004
          17 -6.398676205475831E-002
          18  0.318043219507194     
          19 -1.219524873717803E-002
          20  1.321925741899690E-002
          21  0.317129444240669     
          22 -4.313142275803817E-002
          23  5.935057729755274E-003
          24 -3.180835794046507E-003
Sym=     9a
Ene=  -0.338720066486645     
Spin= Alpha
Occup=     2.00000000
           1  2.013969086089891E-005
           2  2.396191537213846E-002
           3 -0.246619072509529     
           4 -0.794013657458181     
           5  5.332012221737282E-006
           6 -1.141553715440579E-003
           7  1.178045971452549E-002
           8  3.798177359033990E-002
           9 -1.016244864384751E-005
          10 -1.153357572240811E-002
          11  0.117831977013928     
          12  0.378979775228304     
          13 -7.518928399524625E-006
          14  3.604558874528683E-004
          15 -3.691828770163900E-003
          16 -1.189061907561613E-002
          17 -4.977237496808724E-006
          18 -1.146291701204126E-002
          19  0.118371647524597     
          20  0.380722518769186     
          21 -2.949049553936500E-005
          22  3.547458156136585E-004
          23 -3.639067752321548E-003
          24 -1.172608480790712E-002
Sym=    10a
Ene=  -0.330586266979512     
Spin= Alpha
Occup=     2.00000000
           1  7.036042979368096E-007
           2  1.416897339045792E-004
           3  3.014617257709479E-004
           4  9.872078371139256E-004
           5 -3.654179288028943E-007
           6 -3.546299547282674E-005
           7 -3.771428501770738E-005
           8 -1.274009171811039E-004
           9  3.678262481481724E-005
          10  2.060708914433503E-002
          11 -0.210464704171602     
          12 -0.677755452568588     
          13 -1.086903493918916E-004
          14  1.252410360806537E-003
          15 -1.281878057091204E-002
          16 -4.126568312372723E-002
          17 -3.445382779412062E-005
          18 -2.033142589952199E-002
          19  0.210126690785719     
          20  0.676713497219790     
          21  9.748322757065649E-005
          22 -1.246774650527110E-003
          23  1.283437190451105E-002
          24  4.132151666202465E-002
Sym=    11a
Ene=  -0.321197216669949     
Spin= Alpha
Occup=     2.00000000
           1  5.468436524539403E-002
           2 -6.476831105551344E-004
           3 -0.392564990580008     
           4  0.121782451997489     
           5 -1.062797344319967E-002
           6  2.956766919224461E-004
           7  0.109742202711780     
           8 -3.406218373882934E-002
           9  1.885666804919513E-002
          10  0.104632181477864     
          11 -0.596534576171508     
          12  0.188526810127916     
          13 -8.147273679959124E-002
          14  1.194443385348604E-002
          15 -6.492704459914002E-002
          16  2.052582400878545E-002
          17  1.880994923495691E-002
          18 -0.107762104034014     
          19 -0.598801481795481     
          20  0.182794556835679     
          21 -8.130289728918638E-002
          22 -1.236636429917322E-002
          23 -6.509941296799666E-002
          24  1.984355913203792E-002
Sym=    12a
Ene=  -0.309921133022497     
Spin= Alpha
Occup=     2.00000000
           1  8.925049848973407E-005
           2 -0.351982811056423     
           3 -2.734086965055106E-003
           4 -9.791525211322571E-003
           5  5.485174279815335E-006
           6 -3.482913167551304E-002
           7 -1.789809706384582E-004
           8 -9.967284962665874E-004
           9  1.534921521000587E-002
          10  0.417801767692673     
          11 -0.508416983519966     
          12  0.170538849948521     
          13 -7.548981983309151E-003
          14  2.105112146100369E-002
          15 -1.030008185466590E-002
          16  3.835185458672524E-003
          17 -1.531125074468663E-002
          18  0.419362802263504     
          19  0.513227693261785     
          20 -0.146727970742034     
          21  7.287776143391155E-003
          22  2.105361271137868E-002
          23  1.045302816532134E-002
          24 -2.610358752264199E-003
Sym=    13a
Ene=  -0.267180088551400     
Spin= Alpha
Occup=     0.00000000
           1  0.131799504059059     
           2  9.211379471898102E-004
           3  6.375106492785167E-002
           4 -1.968858910197639E-002
           5 -9.544189278703724E-004
           6 -7.459425947215826E-005
           7  7.878050860755017E-003
           8 -2.423798405704504E-003
           9  0.135052758318420     
          10 -5.895160964938882E-002
          11  7.287490705596218E-002
          12 -2.439670520628884E-002
          13 -0.697016191158222     
          14  0.241097169258069     
          15 -1.996001717810570E-002
          16  1.344289611521869E-002
          17  0.135561831887659     
          18  6.005935526184402E-002
          19  7.347055605830219E-002
          20 -2.099643142754538E-002
          21 -0.699527529469335     
          22 -0.241295653649163     
          23 -2.307955001884155E-002
          24 -1.489949705373303E-004
Sym=    14a
Ene=  -0.237265390647930     
Spin= Alpha
Occup=     0.00000000
           1  6.573258460092192E-004
           2 -0.360885128128709     
           3 -2.140049099004755E-003
           4 -1.023433745651407E-002
           5  1.719075334415831E-006
           6  2.314403889919411E-002
           7  1.320841959396671E-004
           8  6.634861728176590E-004
           9  0.129179836287654     
          10 -0.210605368480874     
          11 -2.369940887449755E-002
          12  1.022097759988184E-003
          13 -0.709404165274501     
          14  2.603660182900022E-002
          15 -5.549099755105787E-002
          16  1.796691278810118E-002
          17 -0.128645899838744     
          18 -0.210393998099999     
          19  2.132812498206153E-002
          20 -1.300857083723330E-002
          21  0.706827998710022     
          22  2.533854815369483E-002
          23  5.575292467406722E-002
          24 -1.650376070443516E-002
Sym=    15a
Ene=  -0.123838703885855     
Spin= Alpha
Occup=     0.00000000
           1 -1.703270122058963E-006
           2  4.791828934738934E-005
           3  1.889320729430745E-005
           4  6.829255260161082E-005
           5  1.277683004117212E-006
           6  2.841117643975288E-005
           7 -2.244136059775385E-004
           8 -7.209177964740769E-004
           9 -3.951584327524181E-006
          10 -1.543631014568096E-003
          11  1.605194700986756E-002
          12  5.172767563517756E-002
          13 -2.659315329052178E-006
          14  2.425834717621829E-002
          15 -0.249546013901797     
          16 -0.804722625774347     
          17  2.650598962618764E-006
          18  1.571952155252177E-003
          19 -1.596718737048129E-002
          20 -5.143953333937432E-002
          21  3.376703984638911E-006
          22 -2.444531218930876E-002
          23  0.250787193590728     
          24  0.808644048728943     
Sym=    16a
Ene=  -0.116525189869900     
Spin= Alpha
Occup=     0.00000000
           1 -1.698341607357199E-004
           2 -6.689621393363881E-004
           3  6.733077722505530E-003
           4  2.199780123992871E-002
           5 -7.176445940324833E-005
           6  8.173932474609328E-003
           7 -8.398721189199151E-002
           8 -0.270472944743157     
           9 -1.519938336752596E-005
          10 -2.056632349907038E-003
          11  2.094356464773223E-002
          12  6.759222422239503E-002
          13 -1.871362415305676E-006
          14 -1.704655932669771E-002
          15  0.180654635555724     
          16  0.580693551137649     
          17 -1.655619852344891E-005
          18 -2.043512469003458E-003
          19  2.103247815119656E-002
          20  6.788735520136920E-002
          21 -5.231009752206166E-006
          22 -1.784094478253933E-002
          23  0.179007904589207     
          24  0.575234703839024     
Sym=    17a
Ene=  -8.958232660099426E-002
Spin= Alpha
Occup=     0.00000000
           1  0.191286086723768     
           2  4.769701807186603E-004
           3  0.114693954862704     
           4 -3.542374228762579E-002
           5  1.133488579283417E-002
           6  1.322268196929318E-004
           7 -2.105702591482132E-002
           8  6.024798196783127E-003
           9 -1.138593330123997E-002
          10  9.224562887036327E-003
          11  8.819003967308965E-002
          12 -2.689591517685611E-002
          13  7.760199076735437E-004
          14 -0.296219333463539     
          15 -0.514133009888231     
          16  0.151206146643681     
          17 -1.198511308026508E-002
          18 -8.940561577523159E-003
          19  8.838719684713910E-002
          20 -2.750525857198071E-002
          21  1.044409624954399E-003
          22  0.294276226327865     
          23 -0.517761409331371     
          24  0.170181279652873     
Sym=    18a
Ene=  -7.038297893389117E-002
Spin= Alpha
Occup=     0.00000000
           1 -9.862718098241558E-004
           2 -2.965349642118685E-003
           3 -5.482810002086136E-004
           4  1.155904352788830E-004
           5 -6.405795528590378E-005
           6  2.925360974777655E-002
           7  3.305787116220793E-004
           8  7.046568200378599E-004
           9  7.795903760141776E-002
          10 -2.506908825157081E-002
          11 -3.633185308351250E-002
          12  1.054374049479890E-002
          13 -2.206970085082499E-002
          14  6.627341397132412E-002
          15  0.807669152588466     
          16 -0.248474679000615     
          17 -7.781554456018158E-002
          18 -2.479360650904149E-002
          19  3.525538396559584E-002
          20 -1.163220220734669E-002
          21  2.206440019692497E-002
          22  5.904172962829291E-002
          23 -0.802404984287207     
          24  0.250624855308286     
Sym=    19a
Ene=  -6.609775321158078E-002
Spin= Alpha
Occup=     0.00000000
           1 -1.655269853897813E-005
           2 -1.230458108743587E-002
           3  0.126391344465953     
           4  0.407152215070347     
           5 -1.253521890073949E-004
           6  2.495040432013334E-002
           7 -0.256430725050347     
           8 -0.825573445652986     
           9  3.514559467456585E-005
          10 -1.370574948715728E-002
          11  0.141019695610272     
          12  0.454116819345434     
          13  1.359900952580553E-005
          14  4.050395441391652E-003
          15 -4.200665766972334E-002
          16 -0.135856383152832     
          17  4.832741660665590E-005
          18 -1.373860153633014E-002
          19  0.141009513057361     
          20  0.454102361366726     
          21  1.369071568745974E-005
          22  4.119465558527223E-003
          23 -4.178307576326828E-002
          24 -0.135592802106171     
Sym=    20a
Ene=   9.391272384719238E-002
Spin= Alpha
Occup=     0.00000000
           1 -0.267099502734212     
           2 -1.085021889313047E-004
           3  6.190125826762911E-002
           4 -1.915137555153748E-002
           5  1.566539241523868E-002
           6  6.963036886168502E-006
           7  3.691975594982645E-002
           8 -1.162683242184459E-002
           9 -0.231608078281969     
          10 -4.271270030921018E-002
          11  1.809928047298129E-002
          12 -6.825549998126124E-003
          13  8.458275189285983E-002
          14  0.516737422153248     
          15 -0.291097807727685     
          16  0.105680517459387     
          17 -0.231708917917955     
          18  4.269286992516959E-002
          19  1.870419993063035E-002
          20 -4.437849297592609E-003
          21  8.521609630353041E-002
          22 -0.519952434024701     
          23 -0.297022552222361     
          24  7.623785415021560E-002
Sym=    21a
Ene=   0.214894178108182     
Spin= Alpha
Occup=     0.00000000
           1 -5.413627572317033E-004
           2  7.969213364335948E-002
           3  7.732673740030371E-004
           4  2.168362129283460E-003
           5  5.018272282888212E-004
           6 -5.059651305625750E-002
           7 -2.259917095429492E-004
           8 -1.464726488136919E-003
           9 -0.114990730727945     
          10  3.981156945138450E-003
          11  2.208465444331672E-002
          12 -6.713256762273293E-003
          13  0.619212507741344     
          14   1.17934046312215     
          15 -3.578140910517406E-002
          16  4.666555025665334E-002
          17  0.114347413178114     
          18  4.289551591787467E-003
          19 -2.230792184729693E-002
          20  7.036855185974190E-003
          21 -0.619098369495440     
          22   1.17884526083933     
          23  4.999500605353566E-002
          24  2.009975506412053E-002
Sym=    22a
Ene=   0.372662913702266     
Spin= Alpha
Occup=     0.00000000
           1  0.389258962981716     
           2 -1.123353141835789E-003
           3 -0.639361400751113     
           4  0.198573090319374     
           5  -1.18390102429755     
           6 -4.099686860952585E-004
           7 -0.254187692426417     
           8  7.911056167529837E-002
           9  0.228857770002839     
          10  0.373133874382051     
          11  0.272851702783283     
          12 -7.348057501216711E-002
          13  6.105161060320487E-002
          14  9.738184004202599E-002
          15 -3.570086111885865E-002
          16  1.397213419506624E-002
          17  0.228939100933358     
          18 -0.372116021455660     
          19  0.267594175814136     
          20 -9.437326474710288E-002
          21  6.019322032857222E-002
          22 -9.637234907181738E-002
          23 -3.680669400563446E-002
          24  8.468875290667073E-003
Sym=    23a
Ene=   0.556825047490155     
Spin= Alpha
Occup=     0.00000000
           1  0.484482106817083     
           2 -8.054771919063566E-004
           3 -0.521016525479194     
           4  0.161881091307257     
           5  0.302399874290539     
           6 -2.526119238731130E-003
           7  -1.12558693017164     
           8  0.349496090142281     
           9 -0.372128096356998     
          10 -0.518643107357025     
          11 -1.741606077929903E-002
          12 -1.030656007222325E-002
          13 -8.210877107533343E-003
          14  2.284789440977678E-003
          15  2.339097241316855E-002
          16 -7.193077924998456E-003
          17 -0.371690251452517     
          18  0.518183601291806     
          19 -9.827169906512659E-003
          20  1.867409119689920E-002
          21 -8.129368946735495E-003
          22 -2.296788282670383E-003
          23  2.323842541753838E-002
          24 -7.285155696245181E-003
Sym=    24a
Ene=   0.627909275771115     
Spin= Alpha
Occup=     0.00000000
           1  1.756719730979647E-004
           2 -0.246776515497480     
           3 -1.925977187555207E-003
           4 -6.860559972691051E-003
           5  2.395187441107476E-004
           6   1.23849204797128     
           7  8.105556317282211E-003
           8  3.491491960478415E-002
           9  0.529756852708432     
          10  0.468291623407891     
          11  0.406452768968515     
          12 -0.112017596892162     
          13  7.316890336427573E-002
          14  8.433148402408000E-002
          15 -2.961888407637771E-002
          16  1.173066333217012E-002
          17 -0.530188748609746     
          18  0.467388777439352     
          19 -0.400007716414135     
          20  0.138296392482213     
          21 -7.318887972596369E-002
          22  8.446764002915649E-002
          23  3.064706323383220E-002
          24 -6.956042773953309E-003
