[Molden Format]
[Title]
[Atoms] AU
O      1     8 -0.19158715511640E+01 -0.98005219129265E+00 -0.47945000740612E+01
S      2    16 -0.11407502630010E+01 -0.23129663291886E+00 -0.23140652557786E+01
O      3     8  0.16007098884008E+00  0.21302451624405E+01 -0.20847109307460E+01
N      4     7  0.19214376417741E+00 -0.24736740371977E+01 -0.86980438243259E+00
S      5    16  0.12631757213669E+01 -0.15634625003808E+01  0.17598644428838E+01
O      6     8 -0.37614016363164E+00  0.15017836373899E+00  0.30628217932507E+01
O      7     8  0.22722376136734E+01 -0.36311583602073E+01  0.31812835898792E+01
C      8     6  0.41900181938296E+01  0.37752996724611E+00  0.94400871641387E+00
F      9     9  0.39371916740791E+01  0.28446445557283E+01  0.13354112242112E+01
F     10     9  0.61294071744536E+01 -0.36611434093474E+00  0.24187321160526E+01
F     11     9  0.49515137834785E+01  0.14744800791465E-01 -0.14347949829249E+01
C     12     6 -0.42688479055632E+01  0.25065112340319E+00 -0.58715745553226E+00
F     13     9 -0.43972744112121E+01  0.23734935772018E+01  0.74731538163750E+00
F     14     9 -0.61575689986610E+01  0.38430394426374E+00 -0.22912454673134E+01
F     15     9 -0.48393056206648E+01 -0.16865068433877E+01  0.92684128445885E+00
[GTO]
           1 0
 s           4   1.00000000000000     
   69.1379619061966      -0.204787563700778     
   11.9061291327073      -0.249970231368273     
  0.956708277443407       0.400258802406396     
  0.364625204960737       0.159522066676936     
 p           4   1.00000000000000     
   8.21241932577816        1.13215567991868     
   2.12935769970981        1.04768407822548     
  0.750664482023609       0.549565082171590     
  0.298852465432831       8.290848659276662E-002
 
           2 0
 s           4   1.00000000000000     
   5.94059715667128      -8.937241731159805E-002
   1.67332031646937      -0.180826416098390     
  0.300052353376111       0.217239963388792     
  0.147626982610695       6.093036238655329E-002
 p           4   1.00000000000000     
   7.60402394306428      -0.258148203245547     
  0.785799530644415       0.290555694475872     
  0.355154539932778       0.228494836712103     
  0.171689541475341       3.379048730081900E-002
 d           3   1.00000000000000     
   1.51575937639239       0.574808919567051     
  0.475268595433768       0.261853961962925     
  0.185128831077629       3.488754942672512E-002
 
           3 0
 s           4   1.00000000000000     
   69.1379619061966      -0.204787563700778     
   11.9061291327073      -0.249970231368273     
  0.956708277443407       0.400258802406396     
  0.364625204960737       0.159522066676936     
 p           4   1.00000000000000     
   8.21241932577816        1.13215567991868     
   2.12935769970981        1.04768407822548     
  0.750664482023609       0.549565082171590     
  0.298852465432831       8.290848659276662E-002
 
           4 0
 s           4   1.00000000000000     
   63.5940244669410      -0.192343884147216     
   10.9514172315237      -0.234781079249537     
  0.879993102573770       0.375937539017009     
  0.335387152965211       0.149828892718628     
 p           4   1.00000000000000     
   7.29650404814951       0.976586663156674     
   1.89187454507126       0.903722267303458     
  0.666944321108241       0.474049584615364     
  0.265522026741309       7.151606771501186E-002
 
           5 0
 s           4   1.00000000000000     
   5.94059715667128      -8.937241731159805E-002
   1.67332031646937      -0.180826416098390     
  0.300052353376111       0.217239963388792     
  0.147626982610695       6.093036238655329E-002
 p           4   1.00000000000000     
   7.60402394306428      -0.258148203245547     
  0.785799530644415       0.290555694475872     
  0.355154539932778       0.228494836712103     
  0.171689541475341       3.379048730081900E-002
 d           3   1.00000000000000     
   1.51575937639239       0.574808919567051     
  0.475268595433768       0.261853961962925     
  0.185128831077629       3.488754942672512E-002
 
           6 0
 s           4   1.00000000000000     
   69.1379619061966      -0.204787563700778     
   11.9061291327073      -0.249970231368273     
  0.956708277443407       0.400258802406396     
  0.364625204960737       0.159522066676936     
 p           4   1.00000000000000     
   8.21241932577816        1.13215567991868     
   2.12935769970981        1.04768407822548     
  0.750664482023609       0.549565082171590     
  0.298852465432831       8.290848659276662E-002
 
           7 0
 s           4   1.00000000000000     
   69.1379619061966      -0.204787563700778     
   11.9061291327073      -0.249970231368273     
  0.956708277443407       0.400258802406396     
  0.364625204960737       0.159522066676936     
 p           4   1.00000000000000     
   8.21241932577816        1.13215567991868     
   2.12935769970981        1.04768407822548     
  0.750664482023609       0.549565082171590     
  0.298852465432831       8.290848659276662E-002
 
           8 0
 s           4   1.00000000000000     
   51.0493630955799      -0.163120632101274     
   8.79112274068875      -0.199110245810007     
  0.706404222589298       0.318820477536558     
  0.269228134134116       0.127065041842404     
 p           4   1.00000000000000     
   5.82636561408000       0.737164515452096     
   1.51068960187200       0.682163716148503     
  0.532564832880000       0.357830539292537     
  0.212023236906000       5.398303027584788E-002
 
           9 0
 s           4   1.00000000000000     
   67.8191594740697      -0.201850789245403     
   11.6790204412661      -0.246385510808000     
  0.938459125048083       0.394518855091218     
  0.357670001280168       0.157234426148285     
 p           4   1.00000000000000     
   9.58240403549692        1.37296780219284     
   2.48457427772447        1.27052889614703     
  0.875889317934415       0.666458841672068     
  0.348706630431394       0.100543312761176     
 
          10 0
 s           4   1.00000000000000     
   67.8191594740697      -0.201850789245403     
   11.6790204412661      -0.246385510808000     
  0.938459125048083       0.394518855091218     
  0.357670001280168       0.157234426148285     
 p           4   1.00000000000000     
   9.58240403549692        1.37296780219284     
   2.48457427772447        1.27052889614703     
  0.875889317934415       0.666458841672068     
  0.348706630431394       0.100543312761176     
 
          11 0
 s           4   1.00000000000000     
   67.8191594740697      -0.201850789245403     
   11.6790204412661      -0.246385510808000     
  0.938459125048083       0.394518855091218     
  0.357670001280168       0.157234426148285     
 p           4   1.00000000000000     
   9.58240403549692        1.37296780219284     
   2.48457427772447        1.27052889614703     
  0.875889317934415       0.666458841672068     
  0.348706630431394       0.100543312761176     
 
          12 0
 s           4   1.00000000000000     
   51.0493630955799      -0.163120632101274     
   8.79112274068875      -0.199110245810007     
  0.706404222589298       0.318820477536558     
  0.269228134134116       0.127065041842404     
 p           4   1.00000000000000     
   5.82636561408000       0.737164515452096     
   1.51068960187200       0.682163716148503     
  0.532564832880000       0.357830539292537     
  0.212023236906000       5.398303027584788E-002
 
          13 0
 s           4   1.00000000000000     
   67.8191594740697      -0.201850789245403     
   11.6790204412661      -0.246385510808000     
  0.938459125048083       0.394518855091218     
  0.357670001280168       0.157234426148285     
 p           4   1.00000000000000     
   9.58240403549692        1.37296780219284     
   2.48457427772447        1.27052889614703     
  0.875889317934415       0.666458841672068     
  0.348706630431394       0.100543312761176     
 
          14 0
 s           4   1.00000000000000     
   67.8191594740697      -0.201850789245403     
   11.6790204412661      -0.246385510808000     
  0.938459125048083       0.394518855091218     
  0.357670001280168       0.157234426148285     
 p           4   1.00000000000000     
   9.58240403549692        1.37296780219284     
   2.48457427772447        1.27052889614703     
  0.875889317934415       0.666458841672068     
  0.348706630431394       0.100543312761176     
 
          15 0
 s           4   1.00000000000000     
   67.8191594740697      -0.201850789245403     
   11.6790204412661      -0.246385510808000     
  0.938459125048083       0.394518855091218     
  0.357670001280168       0.157234426148285     
 p           4   1.00000000000000     
   9.58240403549692        1.37296780219284     
   2.48457427772447        1.27052889614703     
  0.875889317934415       0.666458841672068     
  0.348706630431394       0.100543312761176     
 
[MO]
Sym=     1a
Ene=  -0.778117522392729     
Spin= Alpha
Occup=     2.00000000
           1 -5.205050575199923E-004
           2  1.278435681729676E-003
           3 -2.745346482903417E-004
           4 -1.045059750796707E-003
           5  1.865988494722329E-003
           6  5.161046094080862E-003
           7 -7.348091586482314E-004
           8 -3.224687076410181E-003
           9 -7.375267573032054E-003
          10  5.583962105992814E-003
          11  1.791305467039240E-003
          12  2.360809414373050E-003
          13  5.178955867805120E-003
          14 -1.030223565380182E-003
          15 -7.840310127220580E-004
          16 -1.999005342812915E-004
          17  1.456190296766142E-004
          18 -1.139542508208947E-003
          19 -1.644369186850118E-003
          20  5.923605841604973E-005
          21 -8.143582543335590E-004
          22 -3.058421392219665E-004
          23  1.874651001909946E-003
          24 -4.865082337314515E-003
          25 -3.427874295408346E-003
          26  1.672127126019516E-003
          27 -6.053857949449447E-003
          28  1.529091155840323E-003
          29  4.524766793609124E-003
          30 -6.894300291699514E-003
          31  1.333386389480730E-003
          32  2.251875968045424E-003
          33 -7.892394424625622E-004
          34  2.210070214063279E-004
          35 -6.124861285930242E-004
          36  9.626773757045708E-004
          37 -5.247575613144430E-004
          38 -1.178551933085711E-003
          39 -1.083972129061189E-003
          40  5.420357839998494E-004
          41 -0.190512399460631     
          42 -9.663378158643367E-002
          43 -3.371315472068922E-002
          44  1.422121424466559E-002
          45 -0.283832398151000     
          46 -1.524303327376276E-002
          47 -8.381142111455280E-003
          48 -2.941250331233533E-003
          49 -0.372839816738034     
          50 -2.124320933192622E-002
          51 -4.854213651940092E-003
          52 -3.020710577779219E-003
          53 -0.339747815028392     
          54 -1.989846853423852E-002
          55 -2.192785676692397E-003
          56  5.369216220083021E-003
          57 -0.189020695615781     
          58  9.879224615324014E-002
          59 -1.697455392505429E-003
          60 -2.733054171238715E-002
          61 -0.281609037074170     
          62  1.630264979575048E-002
          63 -5.890431715682181E-003
          64 -2.423556838921465E-003
          65 -0.369910954847369     
          66  2.168346492890717E-002
          67 -2.485868580266056E-003
          68  2.510452953200275E-004
          69 -0.337095115862605     
          70  1.953052023929876E-002
          71  4.731335155140850E-003
          72 -4.366214742759490E-003
Sym=     2a
Ene=  -0.778116081205492     
Spin= Alpha
Occup=     2.00000000
           1  5.441627048619668E-004
           2 -1.694106977527177E-003
           3  5.003876396520799E-004
           4  1.185322769494412E-003
           5 -1.110446175233553E-003
           6 -6.444498121575831E-003
           7  1.123398586303870E-003
           8  2.042926832752204E-003
           9  5.187542515764288E-003
          10 -3.647889748604610E-003
          11 -1.539652767159678E-003
          12 -2.031097735434569E-003
          13 -7.794806396914231E-003
          14  1.282112827312417E-003
          15  6.661959167017263E-004
          16 -2.263899566802038E-003
          17  1.927632210834770E-004
          18 -8.454221793816918E-005
          19  6.466220633753549E-006
          20 -2.122573622186276E-003
          21 -1.819570430014787E-004
          22  2.480447042877145E-005
          23  1.095733694615650E-003
          24 -6.055321570687731E-003
          25 -3.076665266689868E-003
          26  4.404173043395852E-004
          27 -3.724243691890591E-003
          28 -1.887179329731905E-004
          29  3.912961624863782E-003
          30 -7.572434497038226E-003
          31  3.776927665923826E-003
          32  1.568548963014653E-003
          33 -6.600159148445490E-004
          34 -2.215218855804813E-003
          35 -4.104568893654238E-004
          36 -3.207020547441563E-004
          37 -5.400603222921416E-004
          38 -1.527667794333701E-003
          39 -1.383994048792888E-003
          40  4.693624218193607E-004
          41 -0.188906761192021     
          42 -9.636467764355898E-002
          43 -3.325495722853748E-002
          44  1.354429653829658E-002
          45 -0.281573888230109     
          46 -1.523584415580675E-002
          47 -8.393094176275488E-003
          48 -2.969291224861378E-003
          49 -0.370809427293603     
          50 -2.105223678556950E-002
          51 -4.785706568027037E-003
          52 -3.026265880017919E-003
          53 -0.336019989009280     
          54 -1.971602012871920E-002
          55 -2.174348080520565E-003
          56  5.327420053385558E-003
          57  0.190399390244898     
          58 -0.100061009306688     
          59  1.867925496737001E-003
          60  2.696193071754237E-002
          61  0.283797828141239     
          62 -1.655728072120979E-002
          63  6.012352592962427E-003
          64  2.448980303298941E-003
          65  0.373729678449818     
          66 -2.182741122270940E-002
          67  2.505582947357426E-003
          68 -2.939956378146343E-004
          69  0.338682567417959     
          70 -1.965811585513286E-002
          71 -4.765961457251520E-003
          72  4.401514624080773E-003
Sym=     3a
Ene=  -0.764387962753742     
Spin= Alpha
Occup=     2.00000000
           1  6.167825651908606E-005
           2  6.069244921972744E-004
           3 -4.398170648082241E-004
           4 -2.201604856814337E-004
           5  1.729692551357449E-004
           6  5.692453152433798E-004
           7 -5.299431295227224E-004
           8  2.921246336489427E-004
           9 -1.622174272059450E-003
          10  2.645621053857055E-003
          11 -1.023446781797604E-003
          12 -4.287527929776705E-003
          13  1.430100070112698E-003
          14  4.182591613734701E-004
          15  2.842891737379417E-004
          16  9.880881699941113E-004
          17  3.799410510589380E-004
          18 -2.129497208914397E-004
          19 -3.773307626675400E-006
          20 -1.524467549006535E-003
          21 -6.578464208077252E-004
          22  1.422525350175080E-003
          23 -2.013720838463555E-004
          24  4.923545682065414E-004
          25  2.821153804433752E-004
          26  5.951861940905653E-004
          27  2.446052744988030E-003
          28 -1.881177256144290E-003
          29 -5.648754888437400E-004
          30 -1.506209840932098E-003
          31 -3.375843077872741E-003
          32 -2.658990507078501E-003
          33 -2.810981346402021E-004
          34  9.993047068785322E-004
          35 -1.609199359650295E-005
          36 -3.569588896085075E-004
          37 -5.959980292788747E-005
          38  5.187720197433529E-004
          39  5.528090173426016E-004
          40  1.544235913989623E-004
          41  5.314636187984902E-003
          42 -7.069567447762219E-003
          43  8.344356888758850E-002
          44  0.163366151933970     
          45  0.307838219806710     
          46  9.883572227768693E-003
          47  1.731791251876681E-002
          48  1.479021501717773E-002
          49  0.205328691425356     
          50  1.092646535626884E-002
          51  6.166893261330386E-003
          52  1.478936516702990E-002
          53 -0.492706436942604     
          54 -2.394261818323771E-002
          55  5.783971035761015E-003
          56  2.576419922079597E-002
          57 -5.369741831687586E-003
          58  1.411251040867087E-002
          59 -0.171518453812556     
          60  6.876552074161978E-002
          61 -0.310746095063752     
          62  1.319905077824193E-002
          63 -2.130134475902428E-002
          64  3.486789449036465E-004
          65 -0.207322480081040     
          66  1.261282389806652E-002
          67 -1.279971098392368E-002
          68  7.777483383877629E-003
          69  0.497401304981157     
          70 -2.162000288288049E-002
          71 -2.486168109727742E-002
          72  1.446706759249700E-002
Sym=     4a
Ene=  -0.764386982199078     
Spin= Alpha
Occup=     2.00000000
           1 -2.181732351435773E-004
           2 -6.313924576081249E-004
           3  3.872642249340792E-004
           4  2.872413764332646E-004
           5  2.997412650986314E-003
           6 -1.010806826116373E-003
           7  2.217895270468963E-004
           8 -1.553615919595927E-004
           9 -1.164763226107489E-004
          10 -1.709178276064611E-003
          11  1.825654598675359E-003
          12  4.016753113508012E-003
          13 -4.693968284222700E-004
          14 -9.509835035099154E-004
          15 -3.350145273438895E-004
          16 -2.374289691582037E-003
          17  1.097845707546694E-003
          18  9.297344251529815E-004
          19  7.955882319533818E-004
          20  4.870651693421010E-005
          21 -6.765544460269492E-004
          22 -2.464737693174809E-004
          23  2.995644912824439E-003
          24  9.797306500196087E-004
          25  2.116760149573499E-004
          26  3.230037116843336E-004
          27  8.169102740433414E-004
          28 -1.647289795323757E-003
          29  8.303795212804154E-004
          30 -2.327910440160097E-003
          31 -2.754077629040810E-003
          32 -2.479036479478875E-003
          33 -3.376963305627663E-004
          34  2.145908975146605E-003
          35  1.766546524547034E-003
          36  1.439781692848528E-004
          37 -2.187579547291306E-004
          38  5.571023328561362E-004
          39  5.719907459218757E-004
          40  7.292937756812537E-005
          41  5.805194666090197E-003
          42 -6.422075590042533E-003
          43  8.295002812042412E-002
          44  0.165569277573461     
          45  0.307956380475673     
          46  9.966599172738805E-003
          47  1.727057107206369E-002
          48  1.494286581630550E-002
          49  0.211301844386382     
          50  1.124833880831602E-002
          51  6.164644001665196E-003
          52  1.501333967671351E-002
          53 -0.497512827678667     
          54 -2.409739294618643E-002
          55  5.743935680034163E-003
          56  2.610495001475395E-002
          57  5.754820337277498E-003
          58 -1.452908734454088E-002
          59  0.169269962095575     
          60 -6.947373571530570E-002
          61  0.305024870363175     
          62 -1.303372887092298E-002
          63  2.095340058444293E-002
          64 -4.913094106099600E-004
          65  0.209344630176485     
          66 -1.270263522513563E-002
          67  1.265676253476755E-002
          68 -7.817407665018769E-003
          69 -0.492817681767479     
          70  2.135270644790114E-002
          71  2.460841752678989E-002
          72 -1.446732806979410E-002
Sym=     5a
Ene=  -0.761691169951076     
Spin= Alpha
Occup=     2.00000000
           1 -1.740993022513192E-004
           2 -2.546892417667633E-003
           3  3.633940520442479E-004
           4  1.496754821264210E-003
           5  1.419862238092363E-003
           6 -6.707608538527728E-004
           7 -9.977440026708835E-005
           8 -7.115530529946142E-004
           9 -3.126970475194483E-003
          10 -4.819728294967447E-004
          11  3.608943304691228E-003
          12 -2.546864330668851E-003
          13 -5.490560544842993E-004
          14  5.543649011403101E-004
          15  7.735345712634006E-004
          16  3.571349593940919E-003
          17 -5.662583188432804E-004
          18  7.837599809876776E-004
          19  3.531192182290955E-007
          20  3.836623432801006E-004
          21  1.413748890068606E-004
          22 -2.837076757436092E-004
          23 -1.478450847815202E-003
          24 -7.210267152714877E-004
          25  4.445350451510657E-004
          26 -5.140825223158699E-004
          27  3.750361040456226E-003
          28 -2.266215591235785E-003
          29 -1.484145449220442E-003
          30 -1.485951793029745E-003
          31 -1.303494093995038E-003
          32  2.150547628195866E-003
          33 -7.726719995733194E-004
          34  3.475342146402793E-003
          35  4.409072674377446E-004
          36  1.136678570907277E-003
          37  1.779601399822856E-004
          38 -2.402916624011528E-003
          39 -1.634202098733326E-003
          40  7.581668947757750E-004
          41  2.183974574764017E-002
          42 -8.710108301794572E-002
          43  0.142591491446699     
          44 -7.016434307765743E-002
          45  0.436773632795125     
          46  8.603626101478419E-003
          47  2.868316548994749E-002
          48  2.053863018261392E-003
          49 -0.437671998495017     
          50 -3.145656584064185E-002
          51  8.616505883066162E-003
          52 -1.429504980566575E-002
          53  9.918816535956243E-002
          54 -8.980476195312647E-004
          55  9.237454189255293E-003
          56 -8.512977736993842E-003
          57 -2.163639922985314E-002
          58 -6.859137137207255E-002
          59 -7.171893907481337E-002
          60 -0.149592017430150     
          61 -0.432635874997671     
          62  1.264046520984415E-002
          63 -2.117241019948993E-002
          64 -1.661083533673237E-002
          65  0.433559421675599     
          66 -3.032124603983222E-002
          67 -1.564399457729771E-003
          68 -1.795886250250191E-002
          69 -9.829391294634611E-002
          70 -1.234782838307695E-005
          71 -1.391374862275109E-003
          72 -1.239871228159879E-002
Sym=     6a
Ene=  -0.761688575300811     
Spin= Alpha
Occup=     2.00000000
           1  4.073400262025048E-004
           2  2.370452737381856E-003
           3 -4.847239792570645E-004
           4 -1.512291414097357E-003
           5 -6.195441032980102E-003
           6  5.590545793226704E-004
           7 -2.548836073882723E-004
           8  6.671852411775253E-004
           9  2.344869466316799E-003
          10  1.342142297669037E-003
          11 -3.687011763985837E-003
          12  1.535052528063053E-003
          13 -5.812052371173683E-004
          14 -1.231259925736829E-003
          15  8.864411147110046E-005
          16  1.265509851681360E-003
          17  2.684676021123317E-004
          18  2.824795185446862E-003
          19  7.431407626524125E-005
          20 -4.504948930403919E-005
          21  5.197974356687299E-004
          22  1.970461757043884E-004
          23 -6.181728659305320E-003
          24 -5.449390011882102E-004
          25  1.628141144771034E-004
          26 -6.953869540224324E-004
          27  2.579789045437823E-003
          28 -1.998421541705572E-003
          29 -5.813675037322503E-004
          30 -1.685032930589046E-004
          31 -1.669724952014060E-003
          32  2.765711508006521E-003
          33  9.597677663221797E-005
          34 -1.475784073909295E-003
          35  1.862087733190873E-003
          36 -2.033061109390713E-003
          37  4.056613590185312E-004
          38 -2.166910857745289E-003
          39 -1.677473921295595E-003
          40  6.863414549570583E-004
          41  2.134388319744282E-002
          42 -8.624768514216362E-002
          43  0.141783265172026     
          44 -6.814693649034040E-002
          45  0.434731215791140     
          46  8.584726981015728E-003
          47  2.854919819703628E-002
          48  2.163149819014196E-003
          49 -0.432286883841028     
          50 -3.115650476009507E-002
          51  8.546105152725652E-003
          52 -1.405897228449889E-002
          53  9.404837972765986E-002
          54 -1.054992529354660E-003
          55  9.161610604161281E-003
          56 -8.206733973383782E-003
          57  2.154950395842991E-002
          58  6.905905251492910E-002
          59  7.369446411709968E-002
          60  0.150336115291743     
          61  0.438846949489505     
          62 -1.284973091886446E-002
          63  2.155182052484212E-002
          64  1.675773727971538E-002
          65 -0.436413455459651     
          66  3.059908864882362E-002
          67  1.653862180460714E-003
          68  1.805960138215434E-002
          69  9.498436941898060E-002
          70  1.634294291916941E-004
          71  1.586565400430537E-003
          72  1.236123182085710E-002
Sym=     7a
Ene=  -0.680124818046559     
Spin= Alpha
Occup=     2.00000000
           1  7.719434583897421E-002
           2  1.526887984094250E-002
           3  1.902799817269987E-002
           4  5.922225647764218E-002
           5  0.603112890418462     
           6 -1.026733000609628E-003
           7  3.432442153766591E-003
           8 -4.806426643820725E-003
           9  5.227789788526070E-003
          10 -1.435661796023376E-002
          11  9.128828171707693E-003
          12 -4.694896092760943E-003
          13  5.445309799014611E-003
          14 -5.863626057683452E-003
          15  7.573117922993361E-002
          16 -3.418652840922640E-002
          17 -5.630178493315158E-002
          18 -7.898101390688844E-003
          19 -7.189970792468128E-008
          20 -4.277184816653164E-002
          21  2.397154165902141E-002
          22 -7.320089654693861E-002
          23 -0.603113947705862     
          24 -7.792939605965917E-004
          25  4.532986781509506E-004
          26 -5.926660269229863E-003
          27 -4.094101616130178E-003
          28  8.828152510676377E-003
          29 -4.734050894546198E-003
          30 -2.920121966185517E-003
          31 -8.968814457494029E-003
          32  1.141143697590728E-002
          33 -7.573130814769008E-002
          34 -4.235075524784763E-002
          35  4.198753867096477E-002
          36  2.905972741643007E-002
          37 -7.719450686010630E-002
          38  2.105983774696329E-002
          39 -5.068998748225865E-002
          40  3.300766173577862E-002
          41 -3.531116297663470E-002
          42  4.235539202994815E-002
          43  2.638976967560686E-002
          44 -1.091919820886777E-002
          45  1.065975209700677E-002
          46  4.832315220439991E-003
          47  2.715706606823231E-003
          48 -3.507714123917518E-004
          49  2.157179266364478E-002
          50  6.370795491632312E-003
          51  2.209142145361954E-003
          52 -1.372951556669454E-004
          53  9.799683061954247E-003
          54  5.470891850074116E-003
          55  2.300297913878130E-003
          56 -1.126305162533132E-003
          57  3.531109754429496E-002
          58  4.507020397120569E-002
          59 -6.295325220636284E-003
          60 -2.320911758488221E-002
          61 -1.065973023304980E-002
          62  5.148049148122315E-003
          63 -1.085506743953534E-003
          64 -1.780062820269519E-003
          65 -2.157170395736296E-002
          66  6.606350696515502E-003
          67 -6.269978659309665E-004
          68 -1.203757556960618E-003
          69 -9.799660129653030E-003
          70  5.676652664719628E-003
          71 -1.770465499856473E-004
          72 -2.057761303649473E-003
Sym=     8a
Ene=  -0.670105021311974     
Spin= Alpha
Occup=     2.00000000
           1 -8.722072906477465E-002
           2 -1.385129157992704E-002
           3 -2.254073245095258E-002
           4 -5.940866092407887E-002
           5 -0.550291701781232     
           6  8.019415195166500E-003
           7 -7.018854301528081E-003
           8  1.795658211356083E-002
           9 -6.392493423643842E-003
          10  1.578043613004504E-003
          11  4.814449810639338E-003
          12  1.779222310425552E-003
          13  1.003076791423434E-002
          14 -2.301730389490456E-003
          15 -7.440214620636647E-002
          16  3.293560369118818E-002
          17  5.675960172930802E-002
          18  7.529720951687712E-003
          19 -8.504777337131356E-002
          20  4.578876370786170E-003
          21 -5.512515398582345E-002
          22 -2.072757723322873E-002
          23 -0.550290542780342     
          24 -7.884424523836270E-003
          25  5.393656500601481E-003
          26 -1.856766719659766E-002
          27 -4.849650594550951E-003
          28 -1.114098326930150E-003
          29  5.963748921481101E-003
          30 -8.815646238223585E-003
          31  5.851877565785240E-003
          32 -1.121501801715733E-003
          33 -7.440197226858450E-002
          34 -4.116087133281030E-002
          35  4.226663317197389E-002
          36  2.970517479958349E-002
          37 -8.722065922334862E-002
          38  2.017754760617747E-002
          39 -5.362243133143513E-002
          40  3.077041269450307E-002
          41 -3.607123317468058E-002
          42  4.225811567777939E-002
          43  2.670916526421519E-002
          44 -1.233619579160571E-002
          45  8.450806425457789E-003
          46  3.642064039603266E-003
          47  2.474033079860556E-003
          48 -2.102259166090851E-003