7
 energy: -14.166155487162 gnorm: 0.000284105449 xtb: 6.7.1 (edcfbbe)
C           -0.66689119407333       -0.03455301275516        0.10004575423824
C            0.89792557996891        0.05812667411482       -0.13866270386325
O            1.32027194741258        1.15555440028357       -0.53008974006497
O            1.53126588474137       -0.98162436523410        0.09447044169643
H           -1.08240546087342       -0.81403928587476       -0.53810913891104
H           -0.85694949853630       -0.30154661938419        1.13932484138576
H           -1.14321725863987        0.91808220884984       -0.12697945448117
