[Molden Format]
[Title]
[Atoms] AU
O      1     8 -0.25189727294276E+01  0.25036619885883E+01 -0.86374883330871E+00
S      2    16 -0.19094574181813E+01  0.49980745072436E-01  0.17303826764274E+00
O      3     8 -0.26818233369228E+01 -0.20958362859569E+01 -0.13322551400076E+01
O      4     8 -0.22515950793942E+01 -0.21275663911253E+00  0.28713523685515E+01
C      5     6  0.16240719747059E+01 -0.42510701005169E-01 -0.14717611420730E+00
F      6     9  0.26098997407701E+01 -0.22122677763903E+01  0.72387552651219E+00
F      7     9  0.27531282472235E+01  0.18329100879553E+01  0.11359691480288E+01
F      8     9  0.23747486012264E+01  0.17681858084886E+00 -0.25610552232116E+01
[GTO]
           1 0
 s           4   1.00000000000000     
   69.1379619061966      -0.204787563700778     
   11.9061291327073      -0.249970231368273     
  0.956708277443407       0.400258802406396     
  0.364625204960737       0.159522066676936     
 p           4   1.00000000000000     
   8.21241932577816        1.13215567991868     
   2.12935769970981        1.04768407822548     
  0.750664482023609       0.549565082171590     
  0.298852465432831       8.290848659276662E-002
 
           2 0
 s           4   1.00000000000000     
   5.94059715667128      -8.937241731159805E-002
   1.67332031646937      -0.180826416098390     
  0.300052353376111       0.217239963388792     
  0.147626982610695       6.093036238655329E-002
 p           4   1.00000000000000     
   7.60402394306428      -0.258148203245547     
  0.785799530644415       0.290555694475872     
  0.355154539932778       0.228494836712103     
  0.171689541475341       3.379048730081900E-002
 d           3   1.00000000000000     
   1.51575937639239       0.574808919567051     
  0.475268595433768       0.261853961962925     
  0.185128831077629       3.488754942672512E-002
 
           3 0
 s           4   1.00000000000000     
   69.1379619061966      -0.204787563700778     
   11.9061291327073      -0.249970231368273     
  0.956708277443407       0.400258802406396     
  0.364625204960737       0.159522066676936     
 p           4   1.00000000000000     
   8.21241932577816        1.13215567991868     
   2.12935769970981        1.04768407822548     
  0.750664482023609       0.549565082171590     
  0.298852465432831       8.290848659276662E-002
 
           4 0
 s           4   1.00000000000000     
   69.1379619061966      -0.204787563700778     
   11.9061291327073      -0.249970231368273     
  0.956708277443407       0.400258802406396     
  0.364625204960737       0.159522066676936     
 p           4   1.00000000000000     
   8.21241932577816        1.13215567991868     
   2.12935769970981        1.04768407822548     
  0.750664482023609       0.549565082171590     
  0.298852465432831       8.290848659276662E-002
 
           5 0
 s           4   1.00000000000000     
   51.0493630955799      -0.163120632101274     
   8.79112274068875      -0.199110245810007     
  0.706404222589298       0.318820477536558     
  0.269228134134116       0.127065041842404     
 p           4   1.00000000000000     
   5.82636561408000       0.737164515452096     
   1.51068960187200       0.682163716148503     
  0.532564832880000       0.357830539292537     
  0.212023236906000       5.398303027584788E-002
 
           6 0
 s           4   1.00000000000000     
   67.8191594740697      -0.201850789245403     
   11.6790204412661      -0.246385510808000     
  0.938459125048083       0.394518855091218     
  0.357670001280168       0.157234426148285     
 p           4   1.00000000000000     
   9.58240403549692        1.37296780219284     
   2.48457427772447        1.27052889614703     
  0.875889317934415       0.666458841672068     
  0.348706630431394       0.100543312761176     
 
           7 0
 s           4   1.00000000000000     
   67.8191594740697      -0.201850789245403     
   11.6790204412661      -0.246385510808000     
  0.938459125048083       0.394518855091218     
  0.357670001280168       0.157234426148285     
 p           4   1.00000000000000     
   9.58240403549692        1.37296780219284     
   2.48457427772447        1.27052889614703     
  0.875889317934415       0.666458841672068     
  0.348706630431394       0.100543312761176     
 
           8 0
 s           4   1.00000000000000     
   67.8191594740697      -0.201850789245403     
   11.6790204412661      -0.246385510808000     
  0.938459125048083       0.394518855091218     
  0.357670001280168       0.157234426148285     
 p           4   1.00000000000000     
   9.58240403549692        1.37296780219284     
   2.48457427772447        1.27052889614703     
  0.875889317934415       0.666458841672068     
  0.348706630431394       0.100543312761176     
 
[MO]
Sym=     1a
Ene=  -0.741157797058957     
Spin= Alpha
Occup=     2.00000000
           1 -1.143394900111056E-003
           2 -1.588980837954795E-003
           3  6.468942864272479E-004
           4 -1.271535188905077E-004
           5 -4.417279064916148E-004
           6 -9.473881452783106E-003
           7  2.479823910612004E-004
           8  8.585394561995510E-004
           9 -1.370805535647897E-002
          10  6.931760642783186E-003
          11  6.776294713695781E-003
          12  6.242611014641334E-004
          13  2.161251209645262E-003
          14 -5.657203822616750E-005
          15 -1.143394915511072E-003
          16 -1.629417449157970E-003
          17 -4.951831464397654E-004
          18 -2.434966350773468E-004
          19 -1.143394791846877E-003
          20 -1.522590095654280E-003
          21 -2.761356745498524E-005
          22  8.002849398629687E-004
          23 -0.259928024624005     
          24 -0.138627308157589     
          25  3.628588138175157E-003
          26  1.256262130849330E-002
          27 -0.475672495765746     
          28 -2.480465662088676E-002
          29  9.851581341098994E-003
          30 -1.874389288102775E-003
          31 -0.475672646898238     
          32 -2.541943014121581E-002
          33 -7.511232108399362E-003
          34 -3.643144211084022E-003
          35 -0.475672452431327     
          36 -2.379533299026425E-002
          37 -4.028726837325188E-004
          38  1.222529208284467E-002
Sym=     2a
Ene=  -0.727370778311137     
Spin= Alpha
Occup=     2.00000000
           1  8.888036976069602E-005
           2 -1.621026902118779E-003
           3  1.793598624518652E-004
           4  1.030327856746044E-004
           5  1.304957046393810E-009
           6 -1.374747586154353E-005
           7 -1.804813360423580E-004
           8 -9.959241576854471E-005
           9  6.831416270429686E-004
          10 -7.086331792965651E-004
          11  2.549155225359649E-005
          12  4.961930983261849E-003
          13  2.831054543230944E-003
          14 -3.294946597529998E-003
          15 -1.470314997941052E-004
          16  2.697893692559525E-003
          17  1.224561483054965E-004
          18 -1.070372179275166E-004
          19  5.815184595422784E-005
          20 -1.051119047150374E-003
          21  3.618835637770260E-005
          22  1.904848837064641E-004
          23  3.983751421094526E-008
          24 -1.665795601388329E-002
          25 -0.218662038396833     
          26 -0.120660036644460     
          27  0.433666357863914     
          28  1.761892107395201E-002
          29 -2.918827581442728E-002
          30 -2.862110274062491E-003
          31 -0.717265547056755     
          32 -3.359819590528002E-002
          33 -3.473729414554765E-002
          34 -2.047375683780736E-002
          35  0.283599413833988     
          36  1.009989634706196E-002
          37 -1.325070752684693E-002
          38 -1.925075338310034E-002
Sym=     3a
Ene=  -0.727370775638083     
Spin= Alpha
Occup=     2.00000000
           1 -1.184627150971018E-004
           2  2.163135071381135E-003
           3 -2.255258056628057E-004
           4 -1.072400633980539E-004
           5 -4.123491909737024E-010
           6 -1.368725108317004E-005
           7  1.003922236076387E-004
           8 -1.800427487063227E-004
           9  7.077783641994086E-004
          10 -2.255159697038401E-003
          11  1.547381332838992E-003
          12 -2.944974342142031E-003
          13  5.448694144131326E-003
          14  6.758312115734096E-004
          15 -1.774091558472224E-005
          16  3.269966166765896E-004
          17  3.052098016735637E-006
          18  3.219522743922265E-006
          19  1.362039781934495E-004
          20 -2.464495362546403E-003
          21  3.448265585281210E-005
          22  4.411919372377020E-004
          23  1.401913561373933E-008
          24 -1.658360496361277E-002
          25  0.121629710158952     
          26 -0.218129815708503     
          27 -0.577849629956598     
          28 -2.596461646810902E-002
          29  2.800385207155965E-002
          30 -2.049425197488928E-002
          31 -8.664116460323389E-002
          32 -4.993251935056504E-003
          33  5.301324599245604E-003
          34 -1.553173660286376E-002
          35  0.664490870266683     
          36  2.510472465451323E-002
          37  9.623686827233821E-003
          38 -4.096244493278575E-002
Sym=     4a
Ene=  -0.611527380523450     
Spin= Alpha
Occup=     2.00000000
           1  9.773756034214622E-002
           2  2.320084888094865E-002
           3 -7.539983381141090E-002
           4  3.140213348998672E-002
           5  0.796099694919395     
           6  5.311521230494645E-003
           7 -1.390307902864705E-004
           8 -4.813387439035197E-004
           9  1.684568113520072E-002
          10 -8.518367464815551E-003
          11 -8.327313670385170E-003
          12 -7.671487892695863E-004
          13 -2.655935618863559E-003
          14  6.952072158313386E-005
          15  9.773755653317745E-002
          16  2.819730940097239E-002
          17  6.571858934843539E-002
          18  4.577648526165006E-002
          19  9.773755540888046E-002
          20  1.499736314745586E-002
          21  7.943315708347078E-003
          22 -8.319549470033706E-002
          23  7.406369628317480E-002
          24 -9.204100573010886E-002
          25  2.409199836958555E-003
          26  8.340916064005199E-003
          27 -2.712047175793313E-002
          28 -1.786350514347775E-002
          29  6.208276496960767E-003
          30 -9.527379839157262E-004
          31 -2.712046985558073E-002
          32 -1.824701635576314E-002
          33 -4.623176874163699E-003
          34 -2.056125797357263E-003
          35 -2.712047914319852E-002
          36 -1.723386057236178E-002
          37 -1.887989415932527E-004
          38  7.843066196313933E-003
Sym=     5a
Ene=  -0.520676673667572     
Spin= Alpha
Occup=     2.00000000
           1  7.289139025525307E-002
           2 -1.279428777818451E-002
           3 -8.407352130282850E-003
           4  5.075669304969634E-003
           5  5.742746682678333E-002
           6 -6.732306064037050E-002
           7  1.762181309369634E-003
           8  6.100941647319056E-003
           9 -8.921072146944964E-003
          10  4.511118335641042E-003
          11  4.409953811303921E-003
          12  4.062642188302258E-004
          13  1.406517565376304E-003
          14 -3.681563006895981E-005
          15  7.289141040948392E-002
          16 -1.221026012433648E-002
          17  8.087501319798693E-003
          18  6.756009836837351E-003
          19  7.289147657733649E-002
          20 -1.375315887482247E-002
          21  1.334328738534512E-003
          22 -8.319251498353998E-003
          23 -0.443710007119743     
          24 -3.154237763856516E-002
          25  8.256234736382335E-004
          26  2.858418697051411E-003
          27  0.214846029730504     
          28  0.150261964787619     
          29 -0.336577461135794     
          30  0.135391890180568     
          31  0.214846044405600     
          32  0.172484557879459     
          33  0.291050888269872     
          34  0.199330129995913     
          35  0.214846033463163     
          36  0.113777161200488     
          37  3.410044113465707E-002
          38 -0.374280543160208     
Sym=     6a
Ene=  -0.506054996086238     
Spin= Alpha
Occup=     2.00000000
           1 -0.694044946103521     
           2 -1.733060727245640E-002
           3 -1.738500709522299E-002
           4  5.117758724818474E-003
           5  4.069725777262202E-009
           6  6.921031942174450E-004
           7 -0.196655777722259     
           8  6.443983320167546E-002
           9  2.638221936005039E-004
          10 -3.128916386558116E-002
          11  3.102534167198066E-002
          12  2.899288399843606E-002
          13 -4.010921466680660E-003
          14  4.569144433426976E-002
          15  0.409602364785261     
          16  1.119277264688543E-002
          17 -2.726905635002407E-002
          18  1.846636771367256E-002
          19  0.284442520423366     
          20  6.422886157209732E-003
          21 -3.634133958229324E-002
          22  2.956307986092918E-003
          23  3.336861614797397E-008
          24  1.722088273963756E-004
          25 -4.893213403928009E-002
          26  1.603391385065087E-002
          27 -3.474519349109578E-002
          28 -3.784597197262723E-002
          29  4.610052006956754E-002
          30 -2.001118332194082E-002
          31  2.050505884878124E-002
          32  2.532749842263492E-002
          33  1.016670777485927E-002
          34  3.403658745055207E-002
          35  1.424008965820519E-002
          36  1.240485901910213E-002
          37 -2.399616071680332E-002
          38 -2.459991471465026E-002
Sym=     7a
Ene=  -0.506054994168678     
Spin= Alpha
Occup=     2.00000000
           1 -7.226107034141550E-002
           2  1.841518352521235E-003
           3  1.414784147763673E-002
           4  3.615571848121672E-002
           5  1.678295148190653E-009
           6  1.942180709358116E-002
           7  6.421750088407389E-002
           8  0.195768665111097     
           9 -4.205198173971260E-003
          10 -4.109256714508788E-002
          11  4.529776531905914E-002
          12 -1.266813154818627E-002
          13 -2.180865068032811E-002
          14 -3.312511804021112E-002
          15 -0.564930024652523     
          16 -1.159789141465117E-002
          17 -1.395825681207103E-003
          18  2.816422112839241E-002
          19  0.637191062579907     
          20  1.775552080755586E-002
          21  1.369681162433778E-002
          22  1.631012335648204E-002
          23  2.783828419679427E-008
          24  4.832550394283405E-003
          25  1.597855770515071E-002
          26  4.871140167776197E-002
          27 -3.617114627016910E-003
          28 -1.286567502740940E-003
          29  1.641250032538799E-002
          30  2.384173080054304E-002
          31 -2.828165865608653E-002
          32 -3.213887853120589E-002
          33 -4.241019235522245E-002
          34 -7.912392643557269E-003
          35  3.189874318972466E-002
          36  3.023830510370069E-002
          37  1.545962861697766E-002
          38 -4.805473823453707E-002
Sym=     8a
Ene=  -0.480430982557768     
Spin= Alpha
Occup=     2.00000000
           1  8.483025513603071E-002
           2 -1.397726126647643E-002
           3  1.146036623268550E-002
           4 -5.425157920069074E-003
           5  7.323382887042029E-008
           6  1.997536819813456E-004
           7  4.573760132903001E-003
           8  8.825252536500303E-004
           9  2.513164644866273E-004
          10  7.041803865121705E-004
          11 -9.554968509987977E-004
          12  3.120898340330194E-003
          13  4.214429982850277E-004
          14 -8.828627079448093E-003
          15 -9.408735991613409E-002
          16  1.627676344126450E-002
          17  1.046903193037842E-002
          18  7.865976954105286E-003
          19  9.256261744758526E-003
          20 -1.464194478116605E-003
          21 -2.799780257082187E-003
          22  1.250818996310895E-003
          23  4.589182166707206E-008
          24 -1.583103009402416E-002
          25 -0.362575017296928     
          26 -6.996528448827459E-002
          27 -0.168300872523862     
          28 -0.273935511052972     
          29  0.303510871976427     
          30 -0.290652837510309     
          31  0.186663330810982     
          32  0.320709577604292     
          33  0.279525437016020     
          34  0.330735475913204     
          35 -1.836240849303656E-002
          36 -3.396296877451036E-002
          37 -0.289618619034642     
          38  1.653753620281392E-002
Sym=     9a
Ene=  -0.480430981217454     
Spin= Alpha
Occup=     2.00000000
           1 -5.966553563112421E-002
           2  9.521724969007512E-003
           3 -9.414095631773686E-003
           4  7.946585083779942E-004
           5 -1.064186670254712E-008
           6  3.896620735880946E-004
           7 -8.966482208024182E-004
           8  4.558785032909938E-003
           9  6.211886391548057E-004
          10 -7.316647262583735E-003
          11  6.695458623428930E-003
          12 -1.078484857656399E-003
          13  4.560702214314706E-003
          14 -1.023877256368918E-003
          15 -4.363258168188635E-002
          16  7.375010894926759E-003
          17  6.615166690456756E-003
          18  1.227218949263413E-003
          19  0.103298200945563     
          20 -1.526704359401397E-002
          21 -9.514695498319337E-004
          22  1.704470028098450E-002
          23  7.618257372867948E-009
          24 -3.088870107191079E-002
          25  7.108437879244314E-002
          26 -0.361385255085439     
          27  0.118371658196830     
          28  0.159852375135682     
          29 -0.357096701805337     
          30 -0.116204922187803     
          31  8.656700695531622E-002
          32  0.130344665274183     
          33  0.316448009042892     
          34 -0.103484024791252     
          35 -0.204938685898333     
          36 -0.265199999204864     
          37 -1.687704580949345E-002
          38  0.512143768800394     
Sym=    10a
Ene=  -0.475903472895801     
Spin= Alpha
Occup=     2.00000000
           1 -0.354233614174219     
           2  6.396246346736409E-002
           3 -6.646079088719731E-002
           4  2.322582515364208E-002
           5  0.103795862469221     
           6  0.163657396796144     
           7 -4.283814105801766E-003
           8 -1.483091765772647E-002
           9  4.952928698102271E-002
          10 -2.504550338899315E-002
          11 -2.448378359202955E-002
          12 -2.255552968571181E-003
          13 -7.808920830137943E-003
          14  2.044057340673327E-004
          15 -0.354233549295636     
          16  6.829046931784094E-002
          17  5.577828864497748E-002
          18  3.567733272852007E-002
          19 -0.354233612012338     
          20  5.685646127153537E-002
          21  5.732460107079822E-003
          22 -7.604046295151694E-002
          23  0.106844840545656     
          24 -0.351729571881630     
          25  9.206845089754345E-003
          26  3.187437301976382E-002
          27  5.468606220610341E-002
          28 -0.216790980296440     
          29 -0.168145283009784     
          30  9.750918840352586E-002
          31  5.468586650083689E-002
          32 -0.205179196678958     
          33  0.159815172073538     
          34  0.130919058701252     
          35  5.468596319587565E-002
          36 -0.235855899267008     
          37  2.554874253427754E-002
          38 -0.168814803172293     
Sym=    11a
Ene=  -0.445330758355934     
Spin= Alpha
Occup=     2.00000000
           1  0.395807397301350     
           2  3.707875769211170E-003
           3  0.194484473597187     
           4 -8.750224282084412E-002
           5 -0.319289264351129     
           6  8.125662689596908E-002
           7 -2.126955748389041E-003
           8 -7.363606597076426E-003
           9 -5.271643947911867E-002
          10  2.665715866206749E-002
          11  2.605928081705117E-002
          12  2.400693880612385E-003
          13  8.311413277081509E-003
          14 -2.175603007347179E-004
          15  0.395807346645455     
          16 -9.290984774641959E-003
          17 -0.172651564066779     
          18 -0.124898675898631     
          19  0.395807366740709     
          20  2.505020487704829E-002
          21 -2.234247994256324E-002
          22  0.210636868439210     
          23  0.129180424066402     
          24 -0.212847551205128     
          25  5.571240641473133E-003
          26  1.928863709015526E-002
          27  2.936456619050064E-002
          28 -0.287918044889486     
          29 -8.419615082305419E-002
          30  6.718341630719996E-002
          31  2.936465994566304E-002
          32 -0.281789428482169     
          33  8.888367286247720E-002
          34  8.481531502336731E-002
          35  2.936460494898937E-002
          36 -0.297979137226544     
          37  1.802472284428265E-002
          38 -7.336789883780452E-002
Sym=    12a
Ene=  -0.409400390976461     
Spin= Alpha
Occup=     2.00000000
           1  9.485877329130329E-003
           2 -7.797160077039571E-003
           3  3.785263726552095E-003
           4 -1.933728844285789E-002
           5  6.984522569827302E-008
           6 -1.911842329963507E-003
           7 -2.199418198392914E-002
           8 -1.474449330161033E-002
           9 -1.325057128213033E-003
          10 -2.104508222913535E-003
          11  3.429565351126568E-003
          12 -9.611822264919816E-003
          13 -5.731012690454959E-003
          14 -8.999798934543269E-003
          15 -1.791989486468541E-002
          16  1.314286609539970E-002
          17  1.679154936008700E-002
          18  1.209991501219211E-002
          19  8.433857346752761E-003
          20 -5.142499764686640E-003
          21 -1.824076860044883E-002
          22  8.803898210308700E-003
          23 -2.390087746415469E-009
          24 -2.744717892343325E-003
          25 -3.157479050333412E-002
          26 -2.116749839288888E-002
          27  1.118063994403673E-002
          28 -0.276380710616839     
          29  0.151447016111835     
          30  0.457114580782344     
          31 -2.112069168263237E-002
          32  0.595213578008122     
          33 -7.314176576372571E-002
          34 -0.118130086189648     
          35  9.940033597867892E-003
          36 -0.270460633753946     
          37  0.478159357322633     
          38  3.406514821422695E-002
Sym=    13a
Ene=  -0.409400386883042     
Spin= Alpha
Occup=     2.00000000
           1  1.521504002463372E-002
           2 -9.036073688775402E-003
           3  2.126275098309631E-002
           4  2.896364319002905E-003
           5  1.733052175330259E-007
           6  1.600139017898809E-003
           7 -1.485163556157863E-002
           8  2.194670231460876E-002
           9  1.014375249475835E-003
          10  8.908035714006066E-003
          11 -9.922410963481901E-003
          12 -5.862600820862908E-003
          13  7.607680831129978E-003
          14 -2.592279315037407E-003
          15  6.072771419586548E-004
          16  6.966148001932378E-004
          17 -1.216990807698727E-002
          18  1.554018759972439E-002
          19 -1.582273746052510E-002
          20  8.169591185836956E-003
          21 -7.514999459519072E-003
          22 -2.076853441211373E-002
          23 -2.251020811730107E-008
          24  2.297123291500903E-003
          25 -2.132159276299160E-002
          26  3.150679035513270E-002
          27  1.793291202456249E-002
          28 -0.536777572675527     
          29 -0.166259187824708     
          30 -0.180245333303306     
          31  7.162494346277924E-004
          32 -5.094225238081131E-002
          33  0.314952127742832     
          34 -0.425633062701683     
          35 -1.864919599682421E-002
          36  0.547236825997085     
          37  0.227072366960994     
          38  5.061238435014191E-002
Sym=    14a
Ene=  -0.397443413570685     
Spin= Alpha
Occup=     2.00000000
           1  4.588744110706155E-007
           2 -1.800176996984742E-004
           3 -7.875742959476415E-004
           4 -1.759689982297324E-003
           5 -1.285102263421039E-007
           6  1.618188614463776E-007
           7 -5.765543188424214E-007
           8 -3.103898904903706E-008
           9 -2.888422317062868E-008
          10  7.581135740895857E-008
          11 -4.692713423832988E-008
          12 -3.357294379240527E-008
          13  6.919801871128529E-009
          14 -1.117962888213964E-007
          15 -2.234304425263958E-007
          16  1.122817712420389E-004
          17 -1.136845134217154E-003
          18  1.564212851884246E-003
          19  3.178465033633514E-008
          20  6.838324937641573E-005
          21  1.923951787666370E-003
          22  1.961203528538776E-004
          23  4.768270383375946E-008
          24 -9.845499085733865E-008
          25  1.878855266373160E-007
          26 -3.346397395776856E-008
          27 -6.689269647726143E-008
          28 -5.472996252042203E-002
          29 -0.239539671762381     
          30 -0.534739154557206     
          31  1.009562934125192E-007
          32  3.401299701712621E-002
          33 -0.345560379393618     
          34  0.475134559183976     
          35  6.589610538604598E-008
          36  2.071706438040319E-002
          37  0.585095121480100     
          38  5.960578773055814E-002
Sym=    15a
Ene=  -0.396733119461289     
Spin= Alpha
Occup=     2.00000000
           1  6.063591540324448E-003
           2 -6.935790194102355E-003
           3  9.517848895719321E-003
           4  2.275824000251219E-003
           5 -1.529383655955950E-007
           6  9.526913619466420E-004
           7 -5.616368164500180E-003
           8  1.213631870656303E-002
           9  1.116249167014811E-003
          10  1.710080303747853E-003
          11 -2.826329470762663E-003
          12 -3.831103832319202E-003
          13  8.075650949646176E-003
          14 -8.590710020461849E-005
          15  1.564774800852169E-003
          16 -1.584542096344319E-003
          17 -6.222544135835355E-003
          18  5.360178326915180E-003
          19 -7.628053226478757E-003
          20  8.264954244104474E-003
          21 -1.790856849324100E-003
          22 -1.088541417395745E-002
          23  6.649236736343026E-009
          24 -3.653535295669721E-003
          25  2.153562444759521E-002
          26 -4.653695923081979E-002
          27 -2.070199256618452E-002
          28 -0.244900520712966     
          29 -0.223042819153819     
          30  0.496095149297505     
          31 -5.342717825777955E-003
          32 -3.593442977399598E-002
          33 -0.208929109084464     
          34  0.472677520433812     
          35  2.604473401766479E-002
          36  0.392466143163365     
          37 -0.226031832736083     
          38  0.453127715480867     
Sym=    16a
Ene=  -0.396733117366194     
Spin= Alpha
Occup=     2.00000000
           1 -5.307213400580961E-003
           2  7.064862647076492E-003
           3 -3.980210589890723E-003
           4  7.719503646717744E-003
           5 -5.940342586356409E-008
           6  8.229093515776958E-004
           7  1.216821955469557E-002
           8  5.566451314114759E-003
           9  9.806355360831894E-004
          10 -1.925055250667234E-004
          11 -7.881300110164661E-004
          12  8.472824280866030E-003
          13  3.782169550472681E-003
          14  9.124893944112884E-004
          15  7.904565535500882E-003
          16 -1.039855631565296E-002
          17 -7.115104775288984E-003
          18 -6.364038878995098E-003
          19 -2.597227077643393E-003
          20  3.113220278103522E-003
          21  7.836247332778996E-003
          22 -2.845920134852033E-003
          23  2.003724579164333E-009
          24 -3.155697081289528E-003
          25 -4.666090442375333E-002
          26 -2.134523325725913E-002
          27  1.812154785149880E-002
          28  0.277654692281209     
          29  0.472201425543682     
          30  0.184018735490743     
          31 -2.698921909480792E-002
          32 -0.333899334379723     
          33  0.492717018766695     
          34  0.259108701681815     
          35  8.867683333520259E-003
          36  0.152664660144193     
          37  0.460769645362935     
          38  0.209059380363598     
Sym=    17a
Ene=  -0.364774919442368     
Spin= Alpha
Occup=     2.00000000
           1  3.267671998468265E-002
           2  0.296076788029756     
           3  0.132418016478390     
           4 -8.962086568389255E-002
           5  2.337857028381452E-002
           6  0.413266201481746     
           7 -1.081603841430794E-002
           8 -3.745074956663063E-002
           9 -2.830393768426349E-002
          10  1.431241823999249E-002
          11  1.399151944427100E-002
          12  1.289003897875401E-003
          13  4.462496564063081E-003
          14 -1.165817340399287E-004
          15  3.267814977929475E-002
          16  0.286711700648999     
          17 -0.132052275692804     
          18 -0.116562667318743     
          19  3.267746155241238E-002
          20  0.311450443371775     
          21 -2.377351107076581E-002
          22  0.125145990815593     
          23  7.627695288433546E-002
          24 -0.174242541754318     
          25  4.560808161508192E-003
          26  1.579014895204494E-002
          27 -1.868755022904228E-002
          28  0.313546999402024     
          29  1.450462821544658E-002
          30 -3.858752731013358E-002
          31 -1.868760273298945E-002
          32  0.312030031122905     
          33 -2.834739698585206E-002
          34 -4.295329129425494E-002
          35 -1.868756296997229E-002
          36  0.316038287089188     
          37 -1.080440918235751E-002
          38 -3.789412958169354E-003
Sym=    18a