15
 energy: -58.631079397825 gnorm: 0.000852190180 xtb: 6.7.1 (edcfbbe)
O           -1.01383556389621       -0.51862128512908       -2.53714017687307
S           -0.60365904251345       -0.12239690709960       -1.22455059790393
O            0.08470591942112        1.12727719360303       -1.10318151587426
N            0.10167810122009       -1.30901192769111       -0.46028065712818
S            0.66844380511522       -0.82734872530528        0.93128015745525
O           -0.19904480269975        0.07947096766160        1.62077549404988
O            1.20241636291599       -1.92152625340702        1.68346277718848
C            2.21726214144984        0.19978025510016        0.49954789962142
F            2.08347210888555        1.50532107201496        0.70666918703863
F            3.24354259307533       -0.19373936580798        1.27993791509783
F            2.62022825369629        0.00780261255817       -0.75926080728394
C           -2.25897702844140        0.13263886239258       -0.31071034468034
F           -2.32693740850692        1.25599871128339        0.39546226932096
F           -3.25844518866342        0.20336488936508       -1.21247488589045
F           -2.56085025105782       -0.89246098755524        0.49046328586107
