8
 energy: -32.054461260206 gnorm: 0.000116081180 xtb: 6.7.1 (edcfbbe)
O           -1.33298296330299        1.32488086816876       -0.45707619853231
S           -1.01044135089407        0.02644867127636        0.09156790785093
O           -1.41915979357140       -1.10906880031512       -0.70499905920241
O           -1.19149280420011       -0.11258596488698        1.51945423791410
C            0.85942187788303       -0.02249569419151       -0.07788224562798
F            1.38109946556110       -1.17068169168411        0.38305843216174
F            1.45689272712808        0.96993424818290        0.60112898542743
F            1.25666284139635        0.09356836344969       -1.35525205999149
