[Molden Format]
[Title]
[Atoms] AU
C      1     6 -0.12602417117197E+01 -0.65295730887769E-01  0.18905907544136E+00
C      2     6  0.16968334264322E+01  0.10984349461207E+00 -0.26203453400089E+00
O      3     8  0.24949523906291E+01  0.21836813386360E+01 -0.10017244301940E+01
O      4     8  0.28936731461358E+01 -0.18550012075468E+01  0.17852326167818E+00
H      5     1 -0.20454498768443E+01 -0.15383113049849E+01 -0.10168788976972E+01
H      6     1 -0.16193998548644E+01 -0.56984052444128E+00  0.21530119171957E+01
H      7     1 -0.21603675197687E+01  0.17349239346128E+01 -0.23995639242312E+00
[GTO]
           1 0
 s           4   1.00000000000000     
   51.0493630955799      -0.163120632101274     
   8.79112274068875      -0.199110245810007     
  0.706404222589298       0.318820477536558     
  0.269228134134116       0.127065041842404     
 p           4   1.00000000000000     
   5.82636561408000       0.737164515452096     
   1.51068960187200       0.682163716148503     
  0.532564832880000       0.357830539292537     
  0.212023236906000       5.398303027584788E-002
 
           2 0
 s           4   1.00000000000000     
   51.0493630955799      -0.163120632101274     
   8.79112274068875      -0.199110245810007     
  0.706404222589298       0.318820477536558     
  0.269228134134116       0.127065041842404     
 p           4   1.00000000000000     
   5.82636561408000       0.737164515452096     
   1.51068960187200       0.682163716148503     
  0.532564832880000       0.357830539292537     
  0.212023236906000       5.398303027584788E-002
 
           3 0
 s           4   1.00000000000000     
   69.1379619061966      -0.204787563700778     
   11.9061291327073      -0.249970231368273     
  0.956708277443407       0.400258802406396     
  0.364625204960737       0.159522066676936     
 p           4   1.00000000000000     
   8.21241932577816        1.13215567991868     
   2.12935769970981        1.04768407822548     
  0.750664482023609       0.549565082171590     
  0.298852465432831       8.290848659276662E-002
 
           4 0
 s           4   1.00000000000000     
   69.1379619061966      -0.204787563700778     
   11.9061291327073      -0.249970231368273     
  0.956708277443407       0.400258802406396     
  0.364625204960737       0.159522066676936     
 p           4   1.00000000000000     
   8.21241932577816        1.13215567991868     
   2.12935769970981        1.04768407822548     
  0.750664482023609       0.549565082171590     
  0.298852465432831       8.290848659276662E-002
 
           5 0
 s           3   1.00000000000000     
   3.37022769753360       0.273591105889083     
  0.613891182214980       0.264605406538605     
  0.166142911484160       8.246594753408230E-002
 
           6 0
 s           3   1.00000000000000     
   3.37022769753360       0.273591105889083     
  0.613891182214980       0.264605406538605     
  0.166142911484160       8.246594753408230E-002
 
           7 0
 s           3   1.00000000000000     
   3.37022769753360       0.273591105889083     
  0.613891182214980       0.264605406538605     
  0.166142911484160       8.246594753408230E-002
 
[MO]
Sym=     1a
Ene=  -0.458957623247447     
Spin= Alpha
Occup=     2.00000000
           1  8.251698138225676E-002
           2  6.290380506542259E-002
           3  3.918763335033005E-003
           4 -9.643452855865358E-003
           5  0.431025950007376     
           6  0.111559906503456     
           7  1.064931300520892E-002
           8 -1.810423141931600E-002
           9  0.447910838845594     
          10 -3.511811985368147E-002
          11 -0.124983783705120     
          12  4.283916255722341E-002
          13  0.431074295483218     
          14 -5.741465231504337E-002
          15  0.119045337228860     
          16 -2.871348889521875E-002
          17  1.647200335889044E-002
          18  1.647186334844183E-002
          19  1.565006698605273E-002
Sym=     2a
Ene=  -0.445793706370925     
Spin= Alpha
Occup=     2.00000000
           1 -3.618973353279572E-003
           2 -4.954492129457403E-003
           3  3.498723324292146E-002
           4 -1.002268317199002E-002
           5 -7.182831688607740E-003
           6 -3.163896056613587E-002
           7  0.310174668400036     
           8 -9.050965223969649E-002
           9  0.548787278210082     
          10 -5.204162197815138E-002
          11 -1.902892143320876E-002
          12  1.272843904525938E-002
          13 -0.559467036502727     
          14  5.717737422619826E-002
          15 -1.755451583613659E-002
          16 -2.240879073786672E-003
          17 -7.877512566741577E-003
          18 -7.875733351912658E-003
          19  1.191129918080677E-002
Sym=     3a
Ene=  -0.413730641878719     
Spin= Alpha
Occup=     2.00000000
           1  0.523571681823908     
           2 -2.053338670022637E-002
           3 -3.670269628409201E-003
           4  3.847602592020247E-003
           5  9.265794391578584E-002
           6 -0.204963058060820     
           7 -1.023749552575695E-002
           8  3.064292868365957E-002
           9 -0.141205628494372     
          10 -7.713800417676482E-002
          11 -8.987683003030402E-003
          12  1.310717592111924E-002
          13 -0.148948840674029     
          14 -7.780042846572265E-002
          15  1.384324351260403E-003
          16  1.002868623778288E-002
          17  0.224255692400311     
          18  0.224209022603026     
          19  0.217787847985903     
Sym=     4a
Ene=  -0.348902861515697     
Spin= Alpha
Occup=     2.00000000
           1 -8.928396133406752E-002
           2  0.268987922085829     
           3  1.718273607044630E-002
           4 -4.142173568412732E-002
           5  0.371968031227856     
           6 -0.125098500168317     
           7 -5.142506315512206E-003
           8  1.831107505558156E-002
           9 -0.414493908279136     
          10 -0.162789064489678     
          11 -0.289773289000483     
          12  0.110245611820926     
          13 -0.412971687985138     
          14 -0.215652249659531     
          15  0.265413681226766     
          16 -5.226041415203733E-002
          17 -0.121379167006703     
          18 -0.121395976504267     
          19 -0.123688306352265     
Sym=     5a
Ene=  -0.318067343834745     
Spin= Alpha
Occup=     2.00000000
           1  9.395192817904518E-006
           2  5.357864612089575E-002
           3  0.121544212727917     
           4  0.397544391016968     
           5 -1.206511916028867E-004
           6  5.113066437281275E-002
           7  0.116884091452739     
           8  0.382624010766196     
           9 -2.412937096116779E-006
          10  3.494535772860022E-002
          11  7.993735874689209E-002
          12  0.261717434466107     
          13  5.174891575655039E-005
          14  3.571327956849982E-002
          15  8.154983118651210E-002
          16  0.267124237120423     
          17 -0.305010704415002     
          18  0.304834346763868     
          19  9.478440094807054E-006
Sym=     6a
Ene=  -0.306397877461078     
Spin= Alpha
Occup=     2.00000000
           1  5.095555006163406E-003
           2  0.223824106058863     
           3  0.310093696394489     
           4 -0.125070856946950     
           5 -2.434374097691431E-004
           6 -0.342689448558073     
           7  8.086637748286060E-002
           8  2.118166226270555E-002
           9  3.390202560073240E-002
          10 -0.293022298345467     
          11  0.158006046316665     
          12 -8.995753044569399E-003
          13  0.306369915505485     
          14  8.334430833872057E-003
          15 -0.360344406969403     
          16  0.109038325862441     
          17 -0.220958791967449     
          18 -0.221296847398833     
          19  0.184403641932118     
Sym=     7a
Ene=  -0.305349781083286     
Spin= Alpha
Occup=     2.00000000
           1 -5.087393255953870E-003
           2  0.255761241085604     
           3 -0.340116556381173     
           4  6.938258870621936E-002
           5 -8.539827359624333E-004
           6 -0.263322185655161     
           7 -0.140089461981933     
           8  7.816078460923337E-002
           9  0.310086120200453     
          10  3.084555160281299E-003
          11  0.340903451625150     
          12 -0.104364961756459     
          13 -2.612859450198894E-002
          14 -0.263571334280274     
          15 -0.116877667036940     
          16  7.108914344743135E-002
          17  8.940051532421883E-002
          18  8.916579409731655E-002
          19 -0.392435701564297     
Sym=     8a
Ene=  -0.274992321149933     
Spin= Alpha
Occup=     2.00000000
           1 -3.482632511390426E-005
           2 -4.695595152812501E-002
           3 -0.106580307838018     
           4 -0.348840508159690     
           5 -1.332579627486339E-004
           6  5.023386472227655E-002
           7  0.114225664324348     
           8  0.373717283087107     
           9 -1.118157784125562E-004
          10  5.124672105895030E-002
          11  0.116344238799016     
          12  0.381958053541915     
          13 -2.542513976346092E-005
          14  4.908968687486584E-002
          15  0.111800628483689     
          16  0.365236394839830     
          17  0.320461417795986     
          18 -0.320438663437521     
          19 -1.080715936099967E-006
Sym=     9a
Ene=  -0.267155965410294     
Spin= Alpha
Occup=     2.00000000
           1 -2.478810679699188E-003
           2  3.358569531798886E-002
           3 -0.264041596261785     
           4  7.620672842936566E-002
           5 -1.632017147909555E-003
           6 -3.613196920746917E-002
           7  0.312133509583865     
           8 -9.054738824123371E-002
           9 -0.238760058407596     
          10 -0.265029132137352     
          11 -0.369480552828538     
          12  0.148053410118852     
          13  0.248004421718978     
          14  0.340762441340652     
          15 -0.346082596094666     
          16  6.029028112589619E-002
          17  0.145254981925915     
          18  0.145332119547900     
          19 -0.291014095482769     
Sym=    10a
Ene=  -0.184700973888485     
Spin= Alpha
Occup=     2.00000000
           1  3.310964817069594E-007
           2 -1.688105349116161E-003
           3 -3.756696762575105E-003
           4 -1.253794521370728E-002
           5 -8.818391215029771E-007
           6  3.677002189437230E-004
           7  8.138902497149769E-004
           8  2.734486429095506E-003
           9 -1.902580364619855E-005
          10 -8.932355173233836E-002
          11 -0.204582394363464     
          12 -0.670033663605332     
          13  1.829560327894021E-005
          14  9.048027622817935E-002
          15  0.207315329318218     
          16  0.678674433786329     
          17  2.672456140251837E-003
          18 -2.769649557487317E-003
          19  9.522454301492314E-005
Sym=    11a
Ene=  -0.169461146601200     
Spin= Alpha
Occup=     2.00000000
           1  6.478621472736015E-003
           2 -6.227872289461104E-004
           3  4.468118179967529E-002
           4 -1.356952445970405E-002
           5 -1.780956561859620E-004
           6 -7.877636015262474E-003
           7  6.053312042481040E-002
           8 -1.743672643747671E-002
           9  4.782202518072776E-003
          10  0.585054415056980     
          11 -0.420116877090433     
          12  5.027540603044325E-002
          13 -4.379844663944576E-003
          14 -0.482601209884303     
          15 -0.477319517880207     
          16  0.210130374996787     
          17 -2.918937469938972E-002
          18 -2.918776024602798E-002
          19  5.325331764915625E-002
Sym=    12a
Ene=  -0.154407074851749     
Spin= Alpha
Occup=     2.00000000
           1 -0.246588570546145     
           2 -0.456634419839003     
           3 -4.455784156011629E-002
           4  7.495560060043362E-002
           5 -2.406901419689070E-002
           6  0.153206986769994     
           7  9.214899923606731E-003
           8 -2.329629291112753E-002
           9  2.979135522239946E-003
          10 -0.595569040987175     
          11  2.488062968706935E-002
          12  7.223732511281210E-002
          13  2.372023453161087E-003
          14 -0.594291353299232     
          15 -0.103333846820151     
          16  0.111229179803115     
          17  6.310626389796553E-002
          18  6.300772852093391E-002
          19  6.695052711454391E-002
Sym=    13a
Ene=   4.159718798882010E-002
Spin= Alpha
Occup=     0.00000000
           1 -2.311244306386676E-004
           2 -4.942533171603091E-003
           3 -1.065185005014154E-002
           4 -3.479774534636266E-002
           5  5.823843150511868E-004
           6 -0.110748598171771     
           7 -0.252026394319715     
           8 -0.824998777591833     
           9 -1.139237450828456E-005
          10  7.030497708716074E-002
          11  0.160069618693359     
          12  0.523923082465483     
          13 -1.042083269583800E-005
          14  6.981428908333347E-002
          15  0.158910600771221     
          16  0.520247304001615     
          17 -0.159364941892619     
          18  0.159478147423492     
          19  4.689952417692761E-005
Sym=    14a
Ene=   0.294447869889939     
Spin= Alpha
Occup=     0.00000000
           1  0.760745920590801     
           2  0.592849485503327     
           3  2.590379685228526E-002
           4 -8.771252823498790E-002
           5 -0.718679820591297     
           6  0.689230741155504     
           7  3.575240272669777E-002
           8 -0.103969240544154     
           9  6.544317370140000E-002
          10 -0.265309101300124     
          11 -0.103661926934740     
          12  6.743950907321364E-002
          13  6.229932920487982E-002
          14 -0.278016947508140     
          15  7.215197886093083E-002
          16  1.543741179000469E-002
          17 -0.161704384450721     
          18 -0.161493782950314     
          19 -0.153169023274273     
Sym=    15a
Ene=   0.341703561903133     
Spin= Alpha
Occup=     0.00000000
           1 -0.922367881311850     
           2  0.729998287801930     
           3  5.626831272322486E-002
           4 -0.115234055223492     
           5 -0.203690231494632     
           6  0.252652976360301     
           7  1.143072544262662E-002
           8 -3.746689213112604E-002
           9 -2.055736270348820E-002
          10 -3.652292241840854E-002
          11  4.830878507320064E-003
          12  3.445731688737481E-003
          13 -2.236430318842468E-002
          14 -3.638025309979571E-002
          15 -1.462263203243199E-002
          16  9.367211891703048E-003
          17  0.589042636545687     
          18  0.588929530462569     
          19  0.590698906156978     
Sym=    16a
Ene=   0.383116123427765     
Spin= Alpha
Occup=     0.00000000
           1 -6.675507244406823E-003
           2  0.114794354292642     
           3  -1.00936327842342     
           4  0.293283304608919     
           5  2.537375811885037E-003
           6  1.147727687993956E-003
           7 -0.128170150416056     
           8  3.893269967735363E-002
           9  7.904864179201412E-002
          10 -5.691188484021252E-002
          11 -9.369025587940148E-002
          12  3.622793688290774E-002
          13 -8.378123479978604E-002
          14  9.976772330312628E-002
          15 -7.326883290918196E-002
          16  9.075348510959702E-003
          17 -0.475476331965212     
          18 -0.475949653573061     
          19  0.955861684567342     
Sym=    17a
Ene=   0.392367052914456     
Spin= Alpha
Occup=     0.00000000
           1 -1.598701753707619E-004
           2 -0.138326500528832     
           3 -0.314764518504374     
           4  -1.02917662550580     
           5 -1.994528107095459E-004
           6  2.349930059921997E-002
           7  5.391182371366401E-002
           8  0.176634971502550     
           9  1.031585155454237E-004
          10 -6.931558804360991E-003
          11 -1.590149253405206E-002
          12 -5.153537513293845E-002
          13  6.190791042536266E-005
          14 -8.855777691518497E-003
          15 -2.009062509756179E-002
          16 -6.615320109285068E-002
          17 -0.819515396972001     
          18  0.819351853385521     
          19  3.352688632735745E-004
Sym=    18a
Ene=   0.632945004627796     
Spin= Alpha
Occup=     0.00000000
           1 -0.179510352472354     
           2 -0.116832470281021     
           3 -1.496463037863593E-003
           4  1.647278385729728E-002
           5 -0.901683275519149     
           6 -0.801274237923555     
           7 -3.987179732886728E-002
           8  0.119079401857509     
           9  0.461844116877432     
          10 -2.753735114957362E-002
          11 -0.628399427857871     
          12  0.195548708834324     
          13  0.466082554654261     
          14 -0.154451012468067     
          15  0.622325482796343     
          16 -0.169497277853521     
          17  2.514764896634750E-002
          18  2.484781667947297E-002
          19  1.570359300617868E-002
Sym=    19a
Ene=   0.880139579945637     
Spin= Alpha
Occup=     0.00000000
           1  8.319178168677908E-004
           2 -3.386257575956792E-002
           3  0.261691646386631     
           4 -7.541423011462894E-002
           5 -1.320850099317937E-003
           6  0.115656380008311     
           7  -1.21839130362664     
           8  0.356679805307952     
           9  0.584075076231284     
          10 -0.335021077551604     
          11 -0.510961190079584     
          12  0.200682788660847     
          13 -0.579716712828613     
          14  0.428875034510264     
          15 -0.466085419458910     
          16  8.519168625313077E-002
          17  6.387666418298975E-002
          18  6.390771898020076E-002
          19 -0.135206544189294     
