[Molden Format]
[Title]
[Atoms] AU
O      1     8  0.30212420289780E+01 -0.14834331943733E+01 -0.12152285978509E+01
C      2     6  0.19613380861509E+01  0.18098754859756E+00 -0.27863416512358E-01
O      3     8  0.26656427748922E+01  0.20350341165346E+01  0.11453003366372E+01
C      4     6 -0.11440172033042E+01 -0.12139545286462E+00  0.72326126824852E-02
F      5     9 -0.23622239298243E+01  0.18931921679585E+01 -0.10222100303508E+01
F      6     9 -0.20361085999102E+01 -0.21581086952267E+01 -0.12664452490640E+01
F      7     9 -0.21058731569826E+01 -0.34627649062615E+00  0.23792143444583E+01
[GTO]
           1 0
 s           4   1.00000000000000     
   69.1379619061966      -0.204787563700778     
   11.9061291327073      -0.249970231368273     
  0.956708277443407       0.400258802406396     
  0.364625204960737       0.159522066676936     
 p           4   1.00000000000000     
   8.21241932577816        1.13215567991868     
   2.12935769970981        1.04768407822548     
  0.750664482023609       0.549565082171590     
  0.298852465432831       8.290848659276662E-002
 
           2 0
 s           4   1.00000000000000     
   51.0493630955799      -0.163120632101274     
   8.79112274068875      -0.199110245810007     
  0.706404222589298       0.318820477536558     
  0.269228134134116       0.127065041842404     
 p           4   1.00000000000000     
   5.82636561408000       0.737164515452096     
   1.51068960187200       0.682163716148503     
  0.532564832880000       0.357830539292537     
  0.212023236906000       5.398303027584788E-002
 
           3 0
 s           4   1.00000000000000     
   69.1379619061966      -0.204787563700778     
   11.9061291327073      -0.249970231368273     
  0.956708277443407       0.400258802406396     
  0.364625204960737       0.159522066676936     
 p           4   1.00000000000000     
   8.21241932577816        1.13215567991868     
   2.12935769970981        1.04768407822548     
  0.750664482023609       0.549565082171590     
  0.298852465432831       8.290848659276662E-002
 
           4 0
 s           4   1.00000000000000     
   51.0493630955799      -0.163120632101274     
   8.79112274068875      -0.199110245810007     
  0.706404222589298       0.318820477536558     
  0.269228134134116       0.127065041842404     
 p           4   1.00000000000000     
   5.82636561408000       0.737164515452096     
   1.51068960187200       0.682163716148503     
  0.532564832880000       0.357830539292537     
  0.212023236906000       5.398303027584788E-002
 
           5 0
 s           4   1.00000000000000     
   67.8191594740697      -0.201850789245403     
   11.6790204412661      -0.246385510808000     
  0.938459125048083       0.394518855091218     
  0.357670001280168       0.157234426148285     
 p           4   1.00000000000000     
   9.58240403549692        1.37296780219284     
   2.48457427772447        1.27052889614703     
  0.875889317934415       0.666458841672068     
  0.348706630431394       0.100543312761176     
 
           6 0
 s           4   1.00000000000000     
   67.8191594740697      -0.201850789245403     
   11.6790204412661      -0.246385510808000     
  0.938459125048083       0.394518855091218     
  0.357670001280168       0.157234426148285     
 p           4   1.00000000000000     
   9.58240403549692        1.37296780219284     
   2.48457427772447        1.27052889614703     
  0.875889317934415       0.666458841672068     
  0.348706630431394       0.100543312761176     
 
           7 0
 s           4   1.00000000000000     
   67.8191594740697      -0.201850789245403     
   11.6790204412661      -0.246385510808000     
  0.938459125048083       0.394518855091218     
  0.357670001280168       0.157234426148285     
 p           4   1.00000000000000     
   9.58240403549692        1.37296780219284     
   2.48457427772447        1.27052889614703     
  0.875889317934415       0.666458841672068     
  0.348706630431394       0.100543312761176     
 
[MO]
Sym=     1a
Ene=  -0.704613138247263     
Spin= Alpha
Occup=     2.00000000
           1  6.120485086246258E-004
           2  2.119438390116451E-003
           3  1.926216053168827E-004
           4 -3.542529765186897E-005
           5 -8.068390123462478E-003
           6  1.860188005981117E-002
           7  1.336869740249923E-003
           8 -5.207478360300873E-004
           9  5.705212939281105E-004
          10  2.063707328711795E-003
          11  4.620283395959314E-004
          12  1.475419176089598E-004
          13 -0.250585362278235     
          14  0.132373887558704     
          15  5.687124758643497E-003
          16 -6.347818747860912E-003
          17 -0.492642589207540     
          18  1.923372346511745E-002
          19 -7.804756515383746E-003
          20  6.094842735456808E-003
          21 -0.458069475543570     
          22  1.789026217750479E-002
          23  7.814772919423538E-003
          24  3.761613369865366E-003
          25 -0.493075368533567     
          26  1.791085169713585E-002
          27  3.832182755756038E-003
          28 -1.155509982138482E-002
Sym=     2a
Ene=  -0.691891109806654     
Spin= Alpha
Occup=     2.00000000
           1  3.169170774793110E-006
           2 -8.087840799314797E-005
           3  5.984604499322520E-004
           4 -8.967933545850516E-004
           5  6.689423170126481E-006
           6 -5.418535397225713E-004
           7  4.596912364958281E-003
           8 -6.972590475647133E-003
           9 -2.755507409919741E-006
          10 -9.416139539893279E-005
          11  9.154724399770822E-004
          12 -1.380276436628353E-003
          13  8.008675746374275E-005
          14 -1.516589757507925E-002
          15  0.132060949779249     
          16 -0.200589567859183     
          17  0.630972377878492     
          18 -2.188366709447726E-002
          19  2.685218933895301E-002
          20 -2.486721386558111E-002
          21  1.831476080733611E-004
          22 -9.728794457787289E-004
          23  8.405952096868344E-003
          24 -1.278268353645449E-002
          25 -0.630630332067180     
          26  1.723276875874353E-002
          27  1.361228533019226E-002
          28 -3.654733205616404E-002
Sym=     3a
Ene=  -0.690531102979143     
Spin= Alpha
Occup=     2.00000000
           1 -8.714389693192801E-004
           2  4.240329400966652E-003
           3  1.558289519288367E-004
           4 -2.309526956752108E-004
           5  3.415575968652978E-004
           6 -7.534497011153319E-004
           7  5.475182122210161E-003
           8  3.653860893662569E-003
           9  9.406953791878343E-004
          10 -3.116438046648738E-003
          11 -9.336523952785071E-004
          12 -3.829266920827955E-004
          13 -9.129297920202447E-003
          14 -8.789258690454698E-003
          15  0.200541244940501     
          16  0.132684237032274     
          17  0.350368942981561     
          18 -1.267719110567140E-002
          19  2.383184461955722E-002
          20  1.350765571434949E-003
          21 -0.741956078246894     
          22  2.239218251837718E-002
          23  3.586038393904749E-002
          24  2.187675789784448E-002
          25  0.350350795768952     
          26 -1.107311036005464E-002
          27  9.825177807060740E-003
          28  2.261225735423590E-002
Sym=     4a
Ene=  -0.535314769684897     
Spin= Alpha
Occup=     2.00000000
           1  0.390518028657450     
           2 -6.896470461253475E-002
           3  0.118013273909359     
           4  8.367984973113753E-002
           5  0.463691882102745     
           6  7.158325672662061E-002
           7  5.437606072952086E-003
           8 -2.215394934479498E-003
           9  0.381734684736369     
          10 -4.324561286299457E-002
          11 -0.129103869946402     
          12 -8.216940960119018E-002
          13  0.122296117585803     
          14  0.127168833221223     
          15  1.170348253112916E-002
          16 -1.908088047230377E-003
          17 -2.249311430766553E-002
          18  4.425042365481421E-002
          19 -1.284956059041287E-002
          20  7.612292622594139E-003
          21 -2.069061478156023E-002
          22  4.046022843927304E-002
          23  1.762119535404873E-002
          24  8.543777269268877E-003
          25 -2.243310028920944E-002
          26  4.219171704887091E-002
          27  4.910583590342533E-003
          28 -1.933048773685388E-002
Sym=     5a
Ene=  -0.517312549242129     
Spin= Alpha
Occup=     2.00000000
           1 -0.528607311544505     
           2  6.171932874473801E-002
           3 -2.758731126853794E-002
           4 -2.322230275568149E-002
           5  3.801046320500643E-003
           6 -3.023587967044580E-002
           7  0.288560604854256     
           8  0.193674873155068     
           9  0.531231330234739     
          10 -5.678788382691167E-002
          11 -4.211459087693922E-002
          12 -2.337562482471723E-002
          13  4.629742415530467E-003
          14  4.478387947056857E-004
          15  3.010966586918958E-002
          16  1.993760168793665E-002
          17 -2.325831162488335E-002
          18  1.574524950296481E-002
          19 -7.359857250475963E-003
          20  1.568422960132665E-002
          21  4.145752757130459E-002
          22 -2.237287054974711E-002
          23 -2.220175270725761E-002
          24 -1.287962312285809E-002
          25 -2.350997344011704E-002
          26  1.362126522833924E-002
          27  1.249183720415366E-002
          28 -1.465812970691113E-002
Sym=     6a
Ene=  -0.490551913111011     
Spin= Alpha
Occup=     2.00000000
           1 -0.159816135692423     
           2 -6.726302972775201E-002
           3 -2.109186270389290E-002
           4 -8.880137031815264E-003
           5  2.897120299574902E-002
           6 -0.211208998335820     
           7 -2.452623320649628E-002
           8 -8.160627681685236E-005
           9 -0.170617348688814     
          10 -7.019347357846660E-002
          11  6.974256307305830E-003
          12  9.953073019770218E-003
          13  0.460264902128659     
          14  9.128604951977311E-002
          15  1.026073010031494E-002
          16 -6.930494861593132E-005
          17 -0.187905553444360     
          18  0.201145738725010     
          19 -0.243333805111820     
          20  0.126906803153484     
          21 -0.188279107722818     
          22  0.158024367990140     
          23  0.250086010779824     
          24  0.152755571251955     
          25 -0.187968642351321     
          26  0.169550625219953     
          27  3.322855241825173E-002
          28 -0.293261610474088     
Sym=     7a
Ene=  -0.454740378482583     
Spin= Alpha
Occup=     2.00000000
           1 -0.220887946910991     
           2 -0.141498716659699     
           3  1.340846622834516E-002
           4  1.974902875108146E-002
           5  0.138448813179625     
           6 -0.260276363895013     
           7 -2.757493221485461E-002
           8  1.676527929971612E-003
           9 -0.221227636506825     
          10 -0.133020821816392     
          11 -4.304678828048530E-002
          12 -1.834239947913374E-002
          13  5.996620334881515E-003
          14  0.403474437959492     
          15  2.905493374636746E-002
          16 -1.121047017126071E-002
          17  0.108138389789675     
          18  0.115774796137183     
          19  0.283487390338764     
          20 -0.144310580791510     
          21  0.108436395251962     
          22  0.154749844162596     
          23 -0.234929397732505     
          24 -0.166267320743679     
          25  0.108075294022401     
          26  0.149619108799621     
          27 -1.137984473179888E-002
          28  0.303404582917116     
Sym=     8a
Ene=  -0.446219825516528     
Spin= Alpha
Occup=     2.00000000
           1  1.745416811773834E-004
           2  3.083816669574395E-003
           3 -2.581523355656579E-002
           4  3.888917820438448E-002
           5  7.284831658909158E-005
           6  6.204971879211006E-003
           7 -5.289486717852247E-002
           8  7.977237475724804E-002
           9  1.450069828826336E-005
          10  3.016576200927257E-003
          11 -2.570048853948112E-002
          12  3.877659977611309E-002
          13 -2.849094183061785E-005
          14  2.333277307192253E-002
          15 -0.204587730212659     
          16  0.309103047566396     
          17  0.180086218986611     
          18 -0.320705600818929     
          19  0.405079684331477     
          20 -5.051305364263532E-002
          21 -5.384625683645709E-004
          22  1.831572954991039E-002
          23 -0.152730102520328     
          24  0.234159966427284     
          25 -0.179597838081841     
          26  0.284260433443543     
          27 -9.408253828642210E-002
          28 -0.422885793425402     
Sym=     9a
Ene=  -0.443544438279208     
Spin= Alpha
Occup=     2.00000000
           1  7.991046518889189E-002
           2  2.713329146396637E-002
           3 -8.196921796021798E-003
           4 -7.566431655773971E-003
           5  1.299530467546615E-003
           6 -3.014407912690291E-003
           7 -8.329976779203763E-004
           8 -4.307137824542342E-004
           9 -8.681041734617712E-002
          10 -2.991662102854213E-002
          11 -1.440713136816124E-002
          12 -7.318701336120492E-003
          13 -5.258022858141036E-003
          14 -1.954950208116620E-002
          15  0.307493851190404     
          16  0.205003513404265     
          17 -9.599981814770496E-002
          18  0.174082787134005     
          19 -8.015176541924683E-002
          20  0.328740404981519     
          21  0.205909935522018     
          22 -0.300026874526022     
          23 -0.428071313023518     
          24 -0.258372498935529     
          25 -9.682319244921070E-002
          26  0.134134904076945     
          27  0.280487591299989     
          28 -0.221796340349419     
Sym=    10a
Ene=  -0.399590289529666     
Spin= Alpha
Occup=     2.00000000
           1 -0.446570844558582     
           2 -0.101641281852361     
           3  0.331159344662002     
           4  0.228081962752131     
           5  0.289399544031755     
           6  0.114094395274080     
           7  1.029498816605212E-002
           8 -1.380878528807516E-003
           9 -0.442572978288331     
          10 -3.191074144347804E-002
          11 -0.341766617293694     
          12 -0.223521778777033     
          13 -5.852389541946152E-002
          14 -8.890677617053154E-002
          15 -7.961226026416119E-003
          16  1.424799772397568E-003
          17 -9.928213150932312E-003
          18 -0.189451977869025     
          19 -7.658566615756418E-002
          20  3.470438762813217E-002
          21 -1.039251662085610E-002
          22 -0.193643407542114     
          23  4.208634611708962E-002
          24  4.223679906658267E-002
          25 -9.921764161764908E-003
          26 -0.196928412605096     
          27 -1.170288875273294E-002
          28 -6.362692758608210E-002
Sym=    11a
Ene=  -0.378581354690690     
Spin= Alpha
Occup=     2.00000000
           1 -2.381421691380264E-004
           2 -1.453326195999076E-002
           3  0.125517141007019     
           4 -0.188559707881526     
           5 -1.346124603699308E-004
           6 -1.928231351956783E-002
           7  0.167091860860461     
           8 -0.251990886666757     
           9 -1.969900990990593E-004
          10 -1.490950575547433E-002
          11  0.128802599105832     
          12 -0.194894103283861     
          13 -4.574840132938545E-005
          14 -6.950670682446448E-004
          15  5.690401366404195E-003
          16 -8.571175396246928E-003
          17  6.804164756965714E-003
          18  0.411711064878809     
          19  0.270659047179811     
          20  0.140233244704416     
          21 -4.652095232862996E-005
          22  2.673148249976925E-002
          23 -0.245252836544972     
          24  0.373097316956521     
          25 -6.815427165383154E-003
          26 -0.411141580311711     
          27 -0.266588937509112     
          28 -0.149714744305138     
Sym=    12a
Ene=  -0.376236407723721     
Spin= Alpha
Occup=     2.00000000
           1  3.660128935995737E-002
           2  6.155163786590191E-002
           3 -4.742623450600100E-003
           4 -8.143638560747093E-003
           5 -4.811031600858949E-003
           6  2.160146723639282E-002
           7  2.607835640485586E-002
           8  1.540813338419711E-002
           9 -4.982892250211918E-002
          10 -8.276097570609882E-003
          11 -3.715544557904197E-002
          12 -2.407265207293073E-002
          13 -2.051286658073356E-003
          14 -9.888877792358901E-003
          15  3.343544608384072E-002
          16  2.287407092724082E-002
          17  6.708338128270380E-003
          18  0.317760157288334     
          19 -0.159519050901283     
          20 -0.458256170661724     
          21 -1.495281299172272E-002
          22 -0.548657686022384     
          23  1.224672737135156E-002
          24  4.742185039266841E-002
          25  6.771352211328579E-003
          26  0.355268105185019     
          27 -0.459377877113543     
          28 -5.550574202954563E-005
Sym=    13a
Ene=  -0.369287042657485     
Spin= Alpha
Occup=     2.00000000
           1 -1.709418949875293E-004
           2 -2.588615087150640E-002
           3  0.219521700166932     
           4 -0.330506294455257     
           5 -1.226833430220150E-004
           6 -3.079400732263667E-002
           7  0.262698653162234     
           8 -0.396203004744069     
           9 -1.666160024774779E-004
          10 -2.519038546104870E-002
          11  0.213556943738822     
          12 -0.322693120749657     
          13 -5.909568029031940E-005
          14  3.092436870848664E-003
          15 -2.675836018474431E-002
          16  4.031440067211778E-002
          17 -2.041068216290446E-002
          18 -0.283626473975619     
          19 -1.271067532691619E-002
          20 -0.174267837066866     
          21  5.346417764448584E-005
          22 -1.870348693494778E-002
          23  0.165779792523399     
          24 -0.250725702942107     
          25  2.027511616909455E-002
          26  0.261476866849650     
          27  0.185678584149574     
          28 -8.553819503621875E-002
Sym=    14a
Ene=  -0.364137841621246     
Spin= Alpha
Occup=     2.00000000
           1 -2.017927627125417E-006
           2  2.140284983211858E-003
           3 -1.766409337188575E-002
           4  2.667402825543942E-002
           5 -4.421834463006726E-006
           6  2.229512889054581E-003
           7 -1.862888749052682E-002
           8  2.808213968304734E-002
           9  4.352399493331484E-006
          10  2.057021383206862E-003
          11 -1.729415620038793E-002
          12  2.612307431516447E-002
          13  7.186944230108180E-006
          14  1.423264861539058E-003
          15 -1.251702166412086E-002
          16  1.904402361386463E-002
          17 -1.164944128725809E-002
          18  0.154347075242837     
          19 -8.334548069245534E-002
          20 -0.661899006651434     
          21 -1.535520883650183E-005
          22  1.942036694126447E-002
          23 -0.170643552217781     
          24  0.259204660998803     
          25  1.169148127751290E-002
          26 -0.216228135887634     
          27  0.627813985100356     
          28 -0.165475316362252     
Sym=    15a
Ene=  -0.362354604871998     
Spin= Alpha
Occup=     2.00000000
           1 -7.201644976561805E-006
           2 -4.302944767294520E-003
           3  3.609125289097697E-002
           4 -5.439847621104707E-002
           5 -2.530858681221520E-006
           6 -4.875628751062354E-003
           7  4.088862553429133E-002
           8 -6.170117193186066E-002
           9  9.243247779412610E-006
          10 -4.196442952130884E-003
          11  3.507100501448746E-002
          12 -5.289081003200592E-002
          13 -1.440352929138689E-005
          14 -2.594515674954798E-003
          15  2.300933169865733E-002
          16 -3.464399591437549E-002
          17  2.219328082190759E-002
          18 -0.261296461115273     
          19 -0.406728167331112     
          20  0.150270555910198     
          21 -1.120188323260645E-004
          22  4.609635418010172E-002
          23 -0.393290640151675     
          24  0.594380426718617     
          25 -2.213338783071258E-002
          26  0.301424956851930     
          27  3.952416775182323E-002
          28  0.401371535790803     
Sym=    16a
Ene=  -0.361997164314409     
Spin= Alpha
Occup=     2.00000000
           1  5.407038066119170E-003
           2  6.399609383620083E-002
           3  1.926057174259233E-002
           4  7.777860959208648E-003
           5 -1.464502119679557E-002
           6  5.518382014699571E-002
           7  2.106644404139408E-002
           8  9.672467746567465E-003
           9 -3.675615411416137E-002
          10  2.645038491228705E-002
          11 -3.789280258211857E-002
          12 -2.712883691551652E-002
          13  3.579952926212202E-005
          14 -1.311050088668935E-002
          15 -4.469556915956435E-002
          16 -2.861624370503399E-002
          17 -1.177046592640111E-002
          18  0.225187996664365     
          19  0.455191615954635     
          20  0.238862437343961     
          21  2.964164332166126E-002
          22 -0.344356125558944     
          23  0.420141518142307     
          24  0.305441352143390     
          25 -1.193066557051610E-002
          26  0.231639113364511     
          27  0.415159095624433     
          28  0.302563681958928     
Sym=    17a
Ene=  -0.357782558728540     
Spin= Alpha
Occup=     2.00000000
           1 -0.103544808043858     
           2  0.239176532358912     
           3  0.189538084433301     
           4  0.106818463997573     
           5 -9.313283874889651E-002
           6  0.351665603079644     
           7  3.521279675274010E-002
           8 -4.401727242932641E-003
           9 -9.451818253092652E-002
          10  0.286281047532667     
          11 -0.130491320166707     
          12 -0.109043346742428     
          13 -8.462278151360646E-003
          14 -8.621828028198672E-002
          15 -3.773233849262593E-003
          16  4.070364836759648E-003
          17  2.032908054864423E-002
          18  0.362183628678185     
          19  2.591294918116417E-002
          20 -3.818138310684614E-002
          21  1.552671359926944E-002
          22  0.524143252130310     
          23 -8.873976525787332E-002
          24 -9.851145711607975E-002
          25  2.040007397112922E-002
          26  0.365724630942013     
          27  5.186262443759739E-004
          28  4.432094425585274E-004
Sym=    18a
Ene=  -0.343916193691160     
Spin= Alpha
Occup=     2.00000000
           1  0.335900560840478     
           2  0.374769868760433     
           3 -0.308476975093123     
           4 -0.234144453409752     
           5  1.078834040927268E-003
           6 -2.844949013518281E-002
           7  0.284532436577748     
           8  0.190868854456320     
           9 -0.339131156783257     
          10 -0.307172853318059     
          11 -0.383249817590136     
          12 -0.229756491297105     
          13  2.749317487748950E-004
          14  1.367464126284590E-003
          15 -6.598282689099095E-003
          16 -4.476603975163848E-003
          17 -7.835959866985650E-003
          18 -6.402317674702428E-002
          19  2.927077677393617E-003
          20 -1.100507895718193E-002
          21  1.459465720296655E-002
          22  0.116991712914923     
          23  3.062113042468335E-002
          24  1.127090465411132E-002
          25 -7.924455173581153E-003
          26 -6.283615371874081E-002
          27 -1.340135790812791E-002
          28  1.384396557235901E-002
Sym=    19a
Ene=  -0.254122063924522     
Spin= Alpha
Occup=     2.00000000
           1 -4.975390339335631E-005
           2  4.682962531616278E-002
           3 -0.390686556145294     
           4  0.589621344364525     
           5 -3.917294347849349E-006
           6 -1.299666360943547E-004
           7  1.126101577388409E-003
           8 -1.722594263135232E-003
           9  4.940679561737403E-005
          10 -4.706546163919316E-002
          11  0.392943823570964     
          12 -0.592567901976038     
          13  9.305520429462734E-006
          14  1.261066684727436E-004
          15 -9.866599903562627E-004
          16  1.643601539125254E-003
          17 -7.781312062499341E-004
          18 -5.681112401799080E-003
          19 -3.089009407444173E-003
          20 -1.884338331953322E-003
          21  6.435909937958430E-005
          22 -2.379983093215593E-004
          23  2.883466836595959E-003
          24 -4.148510562359560E-003
          25  7.118862631566074E-004
          26  5.564625659947296E-003
          27  3.217820678335098E-003
          28  1.624375556892944E-003
Sym=    20a
Ene=  -0.242786036783912     
Spin= Alpha
Occup=     2.00000000
           1 -4.119565631033648E-003
           2  0.533948428557380     
           3  0.428970050052200     
           4  0.241876643647995     
           5 -1.626980764224747E-003
           6  4.769843427953151E-003
           7 -5.198067761136860E-002
           8 -3.482934048963549E-002
           9  3.305336768247752E-003
          10 -0.581809319001924     
          11  0.307590984230744     
          12  0.250239939887904     
          13  8.853845028686263E-003
          14  9.370495408257526E-003
          15  1.486506495532033E-002
          16  9.149606666833744E-003
          17 -8.435658293027634E-003
          18 -2.117618727836178E-002
          19  5.563175398131013E-003
          20 -1.394502675829202E-002
          21  1.726929717940741E-002
          22  3.288401292492485E-002
          23  1.827416004104034E-002
          24  9.448593508344897E-003
          25 -8.535696620370459E-003
          26 -1.936554115052635E-002
          27 -1.206817167731908E-002
          28  1.287151699755804E-002
Sym=    21a
Ene=  -0.221641281403261     
Spin= Alpha
Occup=     2.00000000
           1  7.927676296930699E-003
           2 -0.550107268933152     
           3 -8.289754388836883E-002
           4 -1.259225124314172E-002
           5 -1.019028751127361E-003
           6  0.119645494762108     
           7  1.231436977803875E-002
           8 -1.204752409731667E-003
           9  7.406567749052987E-003
          10 -0.582004813132389     
          11 -2.078366735462174E-002
          12  3.108373826552166E-002
          13 -0.336437040389107     
          14 -0.443610959996655     
          15 -3.224568200370007E-002
          16  1.213068035384243E-002
          17  2.044857937596055E-002
          18  0.233538578038642     
          19 -2.560472213654232E-003
          20 -1.562137340594645E-004
          21  2.150616967147772E-002
          22  0.224754030091467     
          23  4.307844723960767E-002
          24  1.150952139864083E-002
          25  2.049956864356564E-002
          26  0.231561727503089     
          27  1.489331763880381E-002
          28 -2.685947150722906E-002
Sym=    22a
Ene=  -2.691362182830126E-002
Spin= Alpha
Occup=     0.00000000
           1 -1.089295891316399E-005
           2 -3.592782232428865E-002
           3  0.311689739838253     
           4 -0.470026866709578     
           5  1.384431395042753E-003
           6  5.285482328156284E-002
           7 -0.460143721911445     
           8  0.693825061524843     
           9 -8.830306906360509E-006
          10 -3.586534995343253E-002
          11  0.311117633185896     
          12 -0.469105387676660     
          13 -7.007750603283457E-004
          14  1.072331382147635E-002
          15 -9.904728637527535E-002
          16  0.149278405692199     
          17  9.414581298628683E-002
          18  9.469045718831647E-002
          19 -9.382766400545425E-002
          20  1.928812837819371E-002
          21 -2.729925921977534E-004
          22 -3.198709005183838E-003
          23  2.703151630096066E-002
          24 -4.157504540442199E-002
          25 -9.360330263587455E-002
          26 -8.470552765871059E-002
          27  1.353065954602089E-002
          28  0.102673241302654     
Sym=    23a
Ene=   0.153591838800372     
Spin= Alpha
Occup=     0.00000000
           1 -3.455002108012502E-002
           2  0.308933280634372     
           3 -7.642367023783537E-003
           4 -2.819607296604299E-002
           5  0.574799712674825     
           6 -0.727527499245772     
           7 -7.596742147011733E-002
           8  4.014251573068250E-003
           9 -3.373664662644075E-002
          10  0.297546995797111     
          11  7.157654888719749E-002
          12  2.521144792719497E-002
          13 -0.827668162807805     
          14 -0.349738402513212     
          15 -2.406389250527559E-002
          16  9.853890455646606E-003
          17  0.129295567857298     
          18  0.158973404222613     
          19 -0.148244021540815     
          20  7.775728505008099E-002
          21  0.138133057090201     
          22  0.145517171906340     
          23  0.167417801650311     
          24  9.937311986598917E-002
          25  0.129786676109398     
          26  0.139718511316206     
          27  2.311886708343934E-002
          28 -0.183070534804472     
Sym=    24a
Ene=   0.207538745237150     
Spin= Alpha
Occup=     0.00000000
           1  6.916166306641397E-002
           2 -9.110422354144636E-002
           3  4.652011597563715E-002
           4  3.787387477699080E-002
           5  5.296099255870598E-003
           6 -1.729478815901843E-002
           7  5.945594804568771E-002
           8  4.079139354100271E-002