7
 energy: -26.880026896454 gnorm: 0.000437565405 xtb: 6.7.1 (edcfbbe)
O            1.59877243036202       -0.78499904036159       -0.64307128002211
C            1.03789541807011        0.09577448617530       -0.01474468503628
O            1.41059740888519        1.07689367788327        0.60606683778966
C           -0.60538783287127       -0.06423970716339        0.00382733380687
F           -1.25003507071627        1.00183415114653       -0.54093025281962
F           -1.07746226999911       -1.14202194016879       -0.67017396466293
F           -1.11438008373068       -0.18324162751134        1.25902601094440
