42
 energy: -48.991496350213 gnorm: 0.000805765035 xtb: 6.7.1 (edcfbbe)
C           -0.32089540144830       -0.54087106921760       -2.35466696293685
N           -0.32649393624003       -0.61995876291459       -0.89013678375062
C           -1.03617385884564       -1.81981253962105       -0.43543785010844
C           -0.58952188766217        0.66817904531633       -0.16854393192004
C            0.39943188965288        0.65687436546740        1.04174587960134
N            1.58413461677507       -0.05635855149379        0.62484500248691
C            2.13873374617566       -1.11386387659250        1.45043183399623
C            2.84855170112157       -2.09061362503295        0.47142188161554
O            2.75348599145961       -1.59234198220968       -0.84698456583483
C            3.37140173318467       -0.32649243619597       -0.95847217889234
C            2.64925628229446        0.68621143125106       -0.02860878411490
C           -2.04177196253910        1.08263416081619        0.18956372784796
C           -2.91278611641554        1.08493567109344       -1.07190523514947
C           -2.73084843876322        0.24432104529004        1.27024510648432
C           -1.95755680595076        2.52882958118608        0.70640168438076
H           -1.33212201732449       -0.48072517240757       -2.75153954286063
H            0.16369151691848       -1.43034452752153       -2.75455370060507
H            0.24020356589670        0.33013198468029       -2.68481601907314
H            0.71156562066311       -0.73564665873926       -0.54839589065406
H           -1.03149923071992       -1.87075014727923        0.64916794305119
H           -0.52667272461004       -2.69890541248840       -0.82840463654196
H           -2.06261286537923       -1.82923508251920       -0.79579519039137
H           -0.23315899634955        1.43952385750001       -0.85996795356374
H           -0.04363418329130        0.14060604834338        1.89324597974713
H            0.61753930264848        1.68310437388961        1.34541472540718
H            1.33706957825120       -1.62205762118859        1.98734557219261
H            2.84989134008298       -0.71914586374683        2.18839839968988
H            2.36381560862876       -3.06758505465090        0.45422371751486
H            3.89960263990204       -2.22564555151248        0.75216411875267
H            4.43458423671818       -0.39981236938498       -0.70210085390591
H            3.28465874538932       -0.04508189922175       -2.00852099396337
H            2.22229893445544        1.50691307306360       -0.60523330216792
H            3.34865391796227        1.11074236495641        0.70361841622286
H           -3.10614156259928        0.08118375348120       -1.44005862823962
H           -2.45750296858046        1.67494415678192       -1.86379608803564
H           -3.87626829882889        1.53104837408992       -0.84121217933293
H           -3.02926937589339       -0.73669614133489        0.91750413843020
H           -3.63724144047942        0.76088550671854        1.57555157623239
H           -2.11560631524141        0.13210217386719        2.15822327871504
H           -2.95928203698185        2.93082235348818        0.82612430655261
H           -1.42458430091601        3.17182478354164        0.01022824615381
H           -1.46692624312675        2.57612624044383        1.67397833795208
