[Molden Format]
[Title]
[Atoms] AU
C      1     6  0.84129510785065E+01 -0.51987101477082E+00 -0.17805203251962E+00
C      2     6  0.63035275052925E+01 -0.20099075992574E+01  0.11095026021073E+01
C      3     6  0.73549357650651E+01 -0.34174657289764E+01  0.34033695316707E+01
C      4     6  0.41326797735450E+01 -0.25618277030474E+00  0.19180729083776E+01
N      5     7  0.19695834922032E+01 -0.15699342000009E+01  0.30618456516729E+01
C      6     6  0.29931999518428E+01  0.12204073889369E+01 -0.33871595014204E+00
N      7     7  0.46060661274919E+00  0.20580411781386E+01  0.48354829599953E+00
C      8     6 -0.15521861846109E+01  0.20916401902253E+01 -0.14855467375122E+01
C      9     6 -0.39570442978504E+01  0.32697070651941E+01 -0.48117909121469E+00
C     10     6 -0.45993186579171E+01  0.32281687866104E+01  0.20668217890160E+01
C     11     6 -0.68522841046648E+01  0.42747911015461E+01  0.28832194637256E+01
C     12     6 -0.84656555390108E+01  0.53482201622896E+01  0.11267124330637E+01
F     13     9 -0.10639540391691E+02  0.63582142811622E+01  0.19145272665636E+01
C     14     6 -0.78749294088250E+01  0.53997439373967E+01 -0.14230335827984E+01
C     15     6 -0.56150567651232E+01  0.43580477006911E+01 -0.22082492783347E+01
C     16     6 -0.20238550652851E+01 -0.57739762266175E+00 -0.23995960232851E+01
C     17     6 -0.13813045677699E+01 -0.12742399230543E+01 -0.48494023290296E+01
C     18     6 -0.17941333531173E+01 -0.37136156290214E+01 -0.56914332473907E+01
C     19     6 -0.28577529662888E+01 -0.54494792259863E+01 -0.40474167042704E+01
F     20     9 -0.32422934547982E+01 -0.78161432590264E+01 -0.48329321589530E+01
C     21     6 -0.35277573631371E+01 -0.47969829757147E+01 -0.16005564840513E+01
C     22     6 -0.31092314228831E+01 -0.23516370974868E+01 -0.78910161163878E+00
H     23     1  0.77900927400325E+01  0.30733738132036E+00 -0.19505260154782E+01
H     24     1  0.99873485710778E+01 -0.17705356484369E+01 -0.58857983343751E+00
H     25     1  0.90963579541719E+01  0.97614245257305E+00  0.10534168342933E+01
H     26     1  0.55450328310381E+01 -0.33945135372209E+01 -0.23341442505029E+00
H     27     1  0.80927210591363E+01 -0.20891501072716E+01  0.47876399574933E+01
H     28     1  0.88897342600646E+01 -0.46483532284426E+01  0.28211831230066E+01
H     29     1  0.59259214356714E+01 -0.45880090820368E+01  0.43047995721368E+01
H     30     1  0.48492101335940E+01  0.10970724713445E+01  0.33111627725082E+01
H     31     1  0.22406096664567E+01 -0.19077629338831E+01  0.49251764756487E+01
H     32     1  0.16662329108122E+01 -0.32565488909111E+01  0.21943717120937E+01
H     33     1  0.41754168187108E+01  0.28054948112542E+01 -0.89895137256248E+00
H     34     1  0.27574955458052E+01 -0.59620295212626E-01 -0.19398721588526E+01
H     35     1  0.52733916330328E+00  0.37804652573562E+01  0.13539088277202E+01
H     36     1  0.15979887373164E+00  0.57354052967103E+00  0.18977967542184E+01
H     37     1 -0.86321529467283E+00  0.32348519501315E+01 -0.30694753868866E+01
H     38     1 -0.33737091002452E+01  0.23860914212906E+01  0.34655214091868E+01
H     39     1 -0.73689013181927E+01  0.42614557134691E+01  0.48534067332511E+01
H     40     1 -0.91698628041963E+01  0.62459832527762E+01 -0.27474776223767E+01
H     41     1 -0.51342253338644E+01  0.43817735395184E+01 -0.41899074165460E+01
H     42     1 -0.56634841483215E+00  0.95858514805289E-01 -0.61236029201288E+01
H     43     1 -0.13118017576646E+01 -0.42777073908358E+01 -0.75881316968626E+01
H     44     1 -0.43779996563783E+01 -0.61907125519377E+01 -0.38234071718035E+00
H     45     1 -0.36723889197698E+01 -0.18172783752834E+01  0.10970402435175E+01
[GTO]
           1 0
 s           4   1.00000000000000     
   51.0493630955799      -0.163120632101274     
   8.79112274068875      -0.199110245810007     
  0.706404222589298       0.318820477536558     
  0.269228134134116       0.127065041842404     
 p           4   1.00000000000000     
   5.82636561408000       0.737164515452096     
   1.51068960187200       0.682163716148503     
  0.532564832880000       0.357830539292537     
  0.212023236906000       5.398303027584788E-002
 
           2 0
 s           4   1.00000000000000     
   51.0493630955799      -0.163120632101274     
   8.79112274068875      -0.199110245810007     
  0.706404222589298       0.318820477536558     
  0.269228134134116       0.127065041842404     
 p           4   1.00000000000000     
   5.82636561408000       0.737164515452096     
   1.51068960187200       0.682163716148503     
  0.532564832880000       0.357830539292537     
  0.212023236906000       5.398303027584788E-002
 
           3 0
 s           4   1.00000000000000     
   51.0493630955799      -0.163120632101274     
   8.79112274068875      -0.199110245810007     
  0.706404222589298       0.318820477536558     
  0.269228134134116       0.127065041842404     
 p           4   1.00000000000000     
   5.82636561408000       0.737164515452096     
   1.51068960187200       0.682163716148503     
  0.532564832880000       0.357830539292537     
  0.212023236906000       5.398303027584788E-002
 
           4 0
 s           4   1.00000000000000     
   51.0493630955799      -0.163120632101274     
   8.79112274068875      -0.199110245810007     
  0.706404222589298       0.318820477536558     
  0.269228134134116       0.127065041842404     
 p           4   1.00000000000000     
   5.82636561408000       0.737164515452096     
   1.51068960187200       0.682163716148503     
  0.532564832880000       0.357830539292537     
  0.212023236906000       5.398303027584788E-002
 
           5 0
 s           4   1.00000000000000     
   63.5940244669410      -0.192343884147216     
   10.9514172315237      -0.234781079249537     
  0.879993102573770       0.375937539017009     
  0.335387152965211       0.149828892718628     
 p           4   1.00000000000000     
   7.29650404814951       0.976586663156674     
   1.89187454507126       0.903722267303458     
  0.666944321108241       0.474049584615364     
  0.265522026741309       7.151606771501186E-002
 
           6 0
 s           4   1.00000000000000     
   51.0493630955799      -0.163120632101274     
   8.79112274068875      -0.199110245810007     
  0.706404222589298       0.318820477536558     
  0.269228134134116       0.127065041842404     
 p           4   1.00000000000000     
   5.82636561408000       0.737164515452096     
   1.51068960187200       0.682163716148503     
  0.532564832880000       0.357830539292537     
  0.212023236906000       5.398303027584788E-002
 
           7 0
 s           4   1.00000000000000     
   63.5940244669410      -0.192343884147216     
   10.9514172315237      -0.234781079249537     
  0.879993102573770       0.375937539017009     
  0.335387152965211       0.149828892718628     
 p           4   1.00000000000000     
   7.29650404814951       0.976586663156674     
   1.89187454507126       0.903722267303458     
  0.666944321108241       0.474049584615364     
  0.265522026741309       7.151606771501186E-002
 
           8 0
 s           4   1.00000000000000     
   51.0493630955799      -0.163120632101274     
   8.79112274068875      -0.199110245810007     
  0.706404222589298       0.318820477536558     
  0.269228134134116       0.127065041842404     
 p           4   1.00000000000000     
   5.82636561408000       0.737164515452096     
   1.51068960187200       0.682163716148503     
  0.532564832880000       0.357830539292537     
  0.212023236906000       5.398303027584788E-002
 
           9 0
 s           4   1.00000000000000     
   51.0493630955799      -0.163120632101274     
   8.79112274068875      -0.199110245810007     
  0.706404222589298       0.318820477536558     
  0.269228134134116       0.127065041842404     
 p           4   1.00000000000000     
   5.82636561408000       0.737164515452096     
   1.51068960187200       0.682163716148503     
  0.532564832880000       0.357830539292537     
  0.212023236906000       5.398303027584788E-002
 
          10 0
 s           4   1.00000000000000     
   51.0493630955799      -0.163120632101274     
   8.79112274068875      -0.199110245810007     
  0.706404222589298       0.318820477536558     
  0.269228134134116       0.127065041842404     
 p           4   1.00000000000000     
   5.82636561408000       0.737164515452096     
   1.51068960187200       0.682163716148503     
  0.532564832880000       0.357830539292537     
  0.212023236906000       5.398303027584788E-002
 
          11 0
 s           4   1.00000000000000     
   51.0493630955799      -0.163120632101274     
   8.79112274068875      -0.199110245810007     
  0.706404222589298       0.318820477536558     
  0.269228134134116       0.127065041842404     
 p           4   1.00000000000000     
   5.82636561408000       0.737164515452096     
   1.51068960187200       0.682163716148503     
  0.532564832880000       0.357830539292537     
  0.212023236906000       5.398303027584788E-002
 
          12 0
 s           4   1.00000000000000     
   51.0493630955799      -0.163120632101274     
   8.79112274068875      -0.199110245810007     
  0.706404222589298       0.318820477536558     
  0.269228134134116       0.127065041842404     
 p           4   1.00000000000000     
   5.82636561408000       0.737164515452096     
   1.51068960187200       0.682163716148503     
  0.532564832880000       0.357830539292537     
  0.212023236906000       5.398303027584788E-002
 
          13 0
 s           4   1.00000000000000     
   67.8191594740697      -0.201850789245403     
   11.6790204412661      -0.246385510808000     
  0.938459125048083       0.394518855091218     
  0.357670001280168       0.157234426148285     
 p           4   1.00000000000000     
   9.58240403549692        1.37296780219284     
   2.48457427772447        1.27052889614703     
  0.875889317934415       0.666458841672068     
  0.348706630431394       0.100543312761176     
 
          14 0
 s           4   1.00000000000000     
   51.0493630955799      -0.163120632101274     
   8.79112274068875      -0.199110245810007     
  0.706404222589298       0.318820477536558     
  0.269228134134116       0.127065041842404     
 p           4   1.00000000000000     
   5.82636561408000       0.737164515452096     
   1.51068960187200       0.682163716148503     
  0.532564832880000       0.357830539292537     
  0.212023236906000       5.398303027584788E-002
 
          15 0
 s           4   1.00000000000000     
   51.0493630955799      -0.163120632101274     
   8.79112274068875      -0.199110245810007     
  0.706404222589298       0.318820477536558     
  0.269228134134116       0.127065041842404     
 p           4   1.00000000000000     
   5.82636561408000       0.737164515452096     
   1.51068960187200       0.682163716148503     
  0.532564832880000       0.357830539292537     
  0.212023236906000       5.398303027584788E-002
 
          16 0
 s           4   1.00000000000000     
   51.0493630955799      -0.163120632101274     
   8.79112274068875      -0.199110245810007     
  0.706404222589298       0.318820477536558     
  0.269228134134116       0.127065041842404     
 p           4   1.00000000000000     
   5.82636561408000       0.737164515452096     
   1.51068960187200       0.682163716148503     
  0.532564832880000       0.357830539292537     
  0.212023236906000       5.398303027584788E-002
 
          17 0
 s           4   1.00000000000000     
   51.0493630955799      -0.163120632101274     
   8.79112274068875      -0.199110245810007     
  0.706404222589298       0.318820477536558     
  0.269228134134116       0.127065041842404     
 p           4   1.00000000000000     
   5.82636561408000       0.737164515452096     
   1.51068960187200       0.682163716148503     
  0.532564832880000       0.357830539292537     
  0.212023236906000       5.398303027584788E-002
 
          18 0
 s           4   1.00000000000000     
   51.0493630955799      -0.163120632101274     
   8.79112274068875      -0.199110245810007     
  0.706404222589298       0.318820477536558     
  0.269228134134116       0.127065041842404     
 p           4   1.00000000000000     
   5.82636561408000       0.737164515452096     
   1.51068960187200       0.682163716148503     
  0.532564832880000       0.357830539292537     
  0.212023236906000       5.398303027584788E-002
 
          19 0
 s           4   1.00000000000000     
   51.0493630955799      -0.163120632101274     
   8.79112274068875      -0.199110245810007     
  0.706404222589298       0.318820477536558     
  0.269228134134116       0.127065041842404     
 p           4   1.00000000000000     
   5.82636561408000       0.737164515452096     
   1.51068960187200       0.682163716148503     
  0.532564832880000       0.357830539292537     
  0.212023236906000       5.398303027584788E-002
 
          20 0
 s           4   1.00000000000000     
   67.8191594740697      -0.201850789245403     
   11.6790204412661      -0.246385510808000     
  0.938459125048083       0.394518855091218     
  0.357670001280168       0.157234426148285     
 p           4   1.00000000000000     
   9.58240403549692        1.37296780219284     
   2.48457427772447        1.27052889614703     
  0.875889317934415       0.666458841672068     
  0.348706630431394       0.100543312761176     
 
          21 0
 s           4   1.00000000000000     
   51.0493630955799      -0.163120632101274     
   8.79112274068875      -0.199110245810007     
  0.706404222589298       0.318820477536558     
  0.269228134134116       0.127065041842404     
 p           4   1.00000000000000     
   5.82636561408000       0.737164515452096     
   1.51068960187200       0.682163716148503     
  0.532564832880000       0.357830539292537     
  0.212023236906000       5.398303027584788E-002
 
          22 0
 s           4   1.00000000000000     
   51.0493630955799      -0.163120632101274     
   8.79112274068875      -0.199110245810007     
  0.706404222589298       0.318820477536558     
  0.269228134134116       0.127065041842404     
 p           4   1.00000000000000     
   5.82636561408000       0.737164515452096     
   1.51068960187200       0.682163716148503     
  0.532564832880000       0.357830539292537     
  0.212023236906000       5.398303027584788E-002
 
          23 0
 s           3   1.00000000000000     
   3.37022769753360       0.273591105889083     
  0.613891182214980       0.264605406538605     
  0.166142911484160       8.246594753408230E-002
 
          24 0
 s           3   1.00000000000000     
   3.37022769753360       0.273591105889083     
  0.613891182214980       0.264605406538605     
  0.166142911484160       8.246594753408230E-002
 
          25 0
 s           3   1.00000000000000     
   3.37022769753360       0.273591105889083     
  0.613891182214980       0.264605406538605     
  0.166142911484160       8.246594753408230E-002
 
          26 0
 s           3   1.00000000000000     
   3.37022769753360       0.273591105889083     
  0.613891182214980       0.264605406538605     
  0.166142911484160       8.246594753408230E-002
 
          27 0
 s           3   1.00000000000000     
   3.37022769753360       0.273591105889083     
  0.613891182214980       0.264605406538605     
  0.166142911484160       8.246594753408230E-002
 
          28 0
 s           3   1.00000000000000     
   3.37022769753360       0.273591105889083     
  0.613891182214980       0.264605406538605     
  0.166142911484160       8.246594753408230E-002
 
          29 0
 s           3   1.00000000000000     
   3.37022769753360       0.273591105889083     
  0.613891182214980       0.264605406538605     
  0.166142911484160       8.246594753408230E-002
 
          30 0
 s           3   1.00000000000000     
   3.37022769753360       0.273591105889083     
  0.613891182214980       0.264605406538605     
  0.166142911484160       8.246594753408230E-002
 
          31 0
 s           3   1.00000000000000     
   3.37022769753360       0.273591105889083     
  0.613891182214980       0.264605406538605     
  0.166142911484160       8.246594753408230E-002
 
          32 0
 s           3   1.00000000000000     
   3.37022769753360       0.273591105889083     
  0.613891182214980       0.264605406538605     
  0.166142911484160       8.246594753408230E-002
 
          33 0
 s           3   1.00000000000000     
   3.37022769753360       0.273591105889083     
  0.613891182214980       0.264605406538605     
  0.166142911484160       8.246594753408230E-002
 
          34 0
 s           3   1.00000000000000     
   3.37022769753360       0.273591105889083     
  0.613891182214980       0.264605406538605     
  0.166142911484160       8.246594753408230E-002
 
          35 0
 s           3   1.00000000000000     
   3.37022769753360       0.273591105889083     
  0.613891182214980       0.264605406538605     
  0.166142911484160       8.246594753408230E-002
 
          36 0
 s           3   1.00000000000000     
   3.37022769753360       0.273591105889083     
  0.613891182214980       0.264605406538605     
  0.166142911484160       8.246594753408230E-002
 
          37 0
 s           3   1.00000000000000     
   3.37022769753360       0.273591105889083     
  0.613891182214980       0.264605406538605     
  0.166142911484160       8.246594753408230E-002
 
          38 0
 s           3   1.00000000000000     
   3.37022769753360       0.273591105889083     
  0.613891182214980       0.264605406538605     
  0.166142911484160       8.246594753408230E-002
 
          39 0
 s           3   1.00000000000000     
   3.37022769753360       0.273591105889083     
  0.613891182214980       0.264605406538605     
  0.166142911484160       8.246594753408230E-002
 
          40 0
 s           3   1.00000000000000     
   3.37022769753360       0.273591105889083     
  0.613891182214980       0.264605406538605     
  0.166142911484160       8.246594753408230E-002
 
          41 0
 s           3   1.00000000000000     
   3.37022769753360       0.273591105889083     
  0.613891182214980       0.264605406538605     
  0.166142911484160       8.246594753408230E-002
 
          42 0
 s           3   1.00000000000000     
   3.37022769753360       0.273591105889083     
  0.613891182214980       0.264605406538605     
  0.166142911484160       8.246594753408230E-002
 
          43 0
 s           3   1.00000000000000     
   3.37022769753360       0.273591105889083     
  0.613891182214980       0.264605406538605     
  0.166142911484160       8.246594753408230E-002
 
          44 0
 s           3   1.00000000000000     
   3.37022769753360       0.273591105889083     
  0.613891182214980       0.264605406538605     
  0.166142911484160       8.246594753408230E-002
 
          45 0
 s           3   1.00000000000000     
   3.37022769753360       0.273591105889083     
  0.613891182214980       0.264605406538605     
  0.166142911484160       8.246594753408230E-002
 
[MO]
Sym=     1a
Ene=  -0.922391248503411     
Spin= Alpha
Occup=     2.00000000
           1 -6.929834312848587E-008
           2  3.934885217523269E-008
           3 -3.972511140033695E-009
           4 -4.438140846808704E-009
           5 -1.406959079121927E-007
           6 -8.141645430742455E-008
           7 -5.593255856066194E-008
           8 -7.812626137193947E-008
           9 -3.519007189620597E-008
          10  2.294332696496608E-008
          11 -1.529342163610467E-008
          12  1.353372539075503E-008
          13 -3.927455051518480E-007
          14 -1.304744033967497E-006
          15 -6.811773419665377E-007
          16 -1.317556462302373E-006
          17  1.974210059209635E-006
          18 -4.543508213458467E-006
          19 -8.238819537619679E-007
          20 -4.917798359236587E-006
          21  1.342690921274511E-005
          22 -1.875159924412233E-005
          23 -4.878073094244210E-006
          24 -7.311682856283783E-006
          25  6.424797822025215E-005
          26 -5.491962742763221E-005
          27 -4.461648664641072E-005
          28 -6.378796568914282E-005
          29  2.404028570970267E-004
          30 -4.473223282978088E-006
          31 -1.423497602850983E-004
          32 -3.355894897298729E-005
          33  3.241985541341069E-005
          34  2.044505803523261E-005
          35 -2.494663727126191E-005
          36 -9.116981935060432E-006
          37  4.946889100279119E-006
          38  2.979085002343751E-006
          39 -4.266116828472027E-006
          40 -4.985783876540984E-006
          41 -4.267063065951454E-008
          42  4.325747283215211E-007
          43 -3.506567690058343E-007
          44 -3.127710906811072E-007
          45 -5.661993971660879E-007
          46  5.832599385584029E-007
          47 -3.020018579018784E-007
          48 -2.145810476985536E-007
          49 -2.600263737885578E-006
          50  3.006901798427802E-008
          51 -1.633337385153854E-008
          52 -1.680151406449064E-008
          53 -7.624349470097521E-008
          54  4.051712390399985E-007
          55 -2.281983975858459E-007
          56 -7.049398383296597E-008
          57  3.427405407200547E-006
          58  3.711070453974659E-006
          59 -3.584465670142236E-006
          60  1.102598037688944E-006
          61  1.134076009047438E-003
          62  1.005394538928413E-004
          63  1.732634561015815E-004
          64  1.033175928031748E-004
          65  1.413724390114478E-003
          66  4.246808105844983E-004
          67  1.380752824132201E-003
          68  2.448035871841609E-004
          69 -1.254642074156501E-002
          70  7.921336601241761E-003
          71  2.048828992269223E-002
          72 -6.821382869249069E-003
          73 -0.170821324978113     
          74  2.721993614061159E-002
          75  0.178630086584215     
          76  5.813649899117653E-002
          77 -0.865576873060588     
          78 -1.334415890024151E-003
          79  1.405343835098911E-002
          80  2.184915617664679E-003
          81 -1.270616085897453E-002
          82 -2.664625352355356E-003
          83  1.409992000661400E-002
          84  1.828574426728195E-002
          85  1.479761512450438E-003
          86  2.325879271304741E-004
          87  1.233845159308898E-003
          88  7.532590783449829E-004
          89 -2.860479578286161E-009
          90 -5.902823344133105E-009
          91  1.677681877113653E-008
          92  4.662875719353186E-007
          93  1.198330105168119E-008
          94 -5.659729572323704E-009
          95 -1.597902684257399E-008
          96 -4.189337749585124E-007
          97 -9.038560070189690E-007
          98  3.355312862935533E-006
          99  2.337554396914256E-009
         100  5.992631712209854E-006
         101 -1.241551347517675E-006
         102  1.006037871447013E-005
         103 -8.593187402638577E-006
         104  2.585891028306298E-006
         105  2.416614240564579E-007
         106  1.620505240017708E-007
         107 -1.048351926215067E-006
         108 -5.991286533870965E-004
         109  2.599745016097586E-004
         110  2.203338120450644E-004
         111 -5.805313249673418E-004
Sym=     2a
Ene=  -0.915206345210556     
Spin= Alpha
Occup=     2.00000000
           1  3.728384217729133E-008
           2 -9.563013383081382E-008
           3  1.285695774329717E-008
           4  2.324087224906634E-008
           5  3.752917426529917E-007
           6 -5.393766306441193E-007
           7  4.253659486848969E-007
           8 -4.409154803868119E-009
           9 -2.183723747619313E-008
          10 -2.522841639549159E-008
          11  2.511557112396856E-008
          12 -2.237873430534581E-008
          13  7.226343579039865E-006
          14 -4.119094995759259E-006
          15  3.101544079269042E-006
          16 -2.505383429784342E-006
          17  2.593465434361126E-006
          18  7.930427747953849E-007
          19  2.836328123852690E-006
          20 -2.032890258500276E-006
          21  2.163283512467438E-005
          22 -2.766241588767351E-006
          23  1.648411629972161E-006
          24  8.141284794223728E-006
          25 -7.240081503659483E-005
          26  1.309892695517856E-004
          27 -3.105192714891614E-005
          28  2.846440031246980E-005
          29 -2.739206342382622E-004
          30  1.229020473619688E-004
          31 -6.891280092262119E-005
          32 -8.053454528300653E-005
          33 -1.166590605186663E-003
          34 -2.222338429892151E-004
          35  8.857643743601771E-005
          36  2.277519654165928E-006
          37 -1.583899732910401E-003
          38 -1.367813846042706E-003
          39  6.547608372377098E-004
          40  1.100153841778100E-004
          41  1.263966229782590E-002
          42 -1.914285347143159E-002
          43  1.089867346754127E-002
          44 -7.385288688846249E-003
          45  0.170571479311706     
          46 -0.163229109861895     
          47  7.605706355964616E-002
          48  6.007329726404068E-002
          49  0.865829642400000     
          50 -1.256069475686456E-002
          51  6.236672859555723E-003
          52  6.272573283271454E-003
          53  1.255612783689479E-002
          54 -1.262603375277416E-002
          55  3.908196498372841E-003
          56  1.888176853126955E-002
          57 -1.362459143318927E-003
          58 -1.221764012496998E-003
          59  4.927640514173146E-004
          60  6.921189872671761E-004
          61 -3.705338420110395E-005
          62  5.344896880952358E-006
          63 -3.328398082211600E-005
          64 -1.648791427873680E-005
          65 -1.975652640722707E-006
          66  1.253948239343152E-006
          67 -2.732368169290430E-006
          68 -3.592155698266627E-006
          69  2.216162757615236E-007
          70  7.015092111507955E-008
          71 -1.600781632045004E-007
          72 -2.210051156342799E-007
          73 -4.943035019323960E-007
          74  1.246172473411503E-007
          75  6.078686432945714E-007
          76  1.692564961555449E-007
          77 -3.294761537548085E-006
          78 -1.022698466234075E-009
          79  7.074752177537920E-008
          80  1.402369695095797E-008
          81 -3.459859112844671E-008
          82 -1.011701639488179E-007
          83 -7.231689705713507E-007
          84 -8.149015029439807E-008
          85 -8.947101427255203E-006
          86 -6.761056294812585E-007
          87 -1.037285989279971E-005
          88 -4.198367172814095E-007
          89 -6.918034389484053E-009
          90  7.406982399846890E-009
          91 -1.878637272151995E-008
          92  3.925562836692238E-008
          93  5.091198448287549E-009
          94  1.249518898591779E-008
          95  4.954618254824739E-009
          96  1.074191796345345E-006
          97 -2.415257049786105E-008
          98  5.933541289431592E-008
          99  2.771270855634249E-006
         100  1.643980666519147E-006
         101 -1.040770301768295E-005
         102 -6.459233095344597E-006
         103  4.520137389678032E-006
         104  5.476288422030448E-004
         105 -2.683212632423651E-004
         106 -2.257233770958952E-004
         107  6.210751889830493E-004
         108 -7.826940984303790E-007
         109 -1.377393783859722E-007
         110 -2.453225550075362E-007
         111  4.540200741990407E-006
Sym=     3a
Ene=  -0.850476891855701     
Spin= Alpha
Occup=     2.00000000
           1 -2.566352581732653E-004
           2  1.668847957448774E-003
           3 -2.319568509359089E-004
           4 -4.261211442066814E-004
           5 -7.577667868158746E-003
           6  1.072709159712594E-002
           7 -7.116416859596516E-003
           8 -1.263466667061602E-004
           9  5.563874829158494E-004
          10  6.392140149801103E-004
          11 -4.743208503763107E-004
          12  2.838822673593751E-004
          13 -9.997032417101098E-002
          14  5.689281856552006E-002
          15 -2.842507264353236E-002
          16  3.058464860927099E-002
          17 -5.307492417025177E-002
          18 -1.044418846721805E-002
          19 -4.355317552687183E-002
          20  3.823803348686778E-002
          21 -0.279022284449404     
          22  0.140453130768467     
          23 -3.185217006540999E-002
          24 -5.650749599421821E-002
          25 -0.538609908408571     
          26 -7.286894048429975E-002
          27  4.713825369431874E-002
          28  9.156319315608222E-002
          29 -0.202709399218311     
          30 -9.838974096242892E-002
          31  1.496463998971039E-002
          32 -7.733392145242297E-002
          33 -3.592815954350803E-002
          34 -3.374915629418845E-002
          35  1.297148805994046E-002
          36  1.180865749814603E-004
          37 -1.022779300635066E-002
          38 -8.916492061256092E-003
          39  2.393365748865591E-003
          40  6.803690212529205E-003
          41  5.288457642716763E-004
          42 -7.416893500304273E-004
          43  2.581775739254897E-004
          44  3.037637756813139E-004
          45  5.669834988960167E-004
          46  2.497053510119532E-004
          47 -1.311562235041981E-004
          48 -1.581217603933216E-004
          49 -5.682626332270474E-004
          50  9.743293483527855E-005
          51 -4.851810498269279E-005
          52 -3.487901029149148E-005
          53  1.108625448367026E-003
          54  5.599729024521617E-005
          55 -6.201401858812932E-005
          56 -3.848425996730720E-005
          57 -1.029522430566253E-003
          58 -4.265520414695326E-003
          59  1.977030839283302E-003
          60 -1.800821871811370E-003
          61 -5.478192687403535E-002
          62 -2.241347057084342E-002
          63 -3.199932337014122E-002
          64 -2.401562646110130E-002
          65 -8.362914199235242E-003
          66 -1.443156130652110E-003
          67 -5.453062822109058E-003