36
 energy: -41.843793036460 gnorm: 0.000316812668 xtb: 6.7.1 (edcfbbe)
C           -3.12720658921149       -0.93621447219206       -1.11194163854338
C           -2.35068557162558       -0.13738314144735       -0.05801432223675
C           -2.79579909356723       -0.58798967358172        1.33597431793077
C           -2.66173452965746        1.35114579889987       -0.23360434300890
C           -0.84211848974851       -0.45445761859841       -0.23220066325691
N           -0.25164836192060       -0.05778036848396       -1.51611430871515
C            0.06465106911204        0.19946764584022        0.84193289364206
N            1.44437029243238        0.15526241866123        0.30818436605936
C            2.15812889101458       -1.08489984829248        0.68251575482980
C            3.40248464550130       -1.28821025202768       -0.16455317281196
S            4.62609220855206        0.02165837976807        0.16722136682972
C            3.50746386399286        1.39354622621112       -0.26742556058148
C            2.25047186515196        1.36146767319758        0.58607970440589
H           -4.19382037372432       -0.78088633046144       -0.98150714493017
H           -2.87027501924861       -0.62257944042203       -2.12153443567212
H           -2.92948238805540       -2.00151221204616       -1.01592808737685
H           -3.87663224873167       -0.51720560514997        1.41398472708728
H           -2.36633643684632        0.03747390832635        2.11382024164715
H           -2.51511690618008       -1.62217582384384        1.52018535727495
H           -2.17282270575165        1.96409383373277        0.51966975615621
H           -3.73219182653333        1.50172433394401       -0.12807020166298
H           -2.38317438276417        1.71555165372580       -1.22072776075921
H           -0.73245419557470       -1.54231902309922       -0.15574429810990
H           -0.45172519128223       -0.72940876166750       -2.24644977207869
H           -0.61267067010132        0.84300830711345       -1.81624046856445
H           -0.22269262721614        1.24105969738207        0.98276186382629
H           -0.00186256532454       -0.31696297730609        1.79729302131034
H            1.17742765207112        0.11019126035476       -0.74863282465466
H            1.47862234461012       -1.92798896892134        0.54257908771282
H            2.43614475239242       -1.02521930294778        1.73830650214055
H            3.16606056098258       -1.29338018788764       -1.22960854236531
H            3.88389900126851       -2.22813189575228        0.09646601985904
H            4.06278871113738        2.31007710899836       -0.08015486816670
H            3.26924110617356        1.33348799923755       -1.33059364018380
H            1.64266816373025        2.24251044720285        0.36643793858749
H            2.51993504494174        1.37297921153257        1.64563313437911
