[Molden Format]
[Title]
[Atoms] AU
C      1     6  0.28375096583895E+01 -0.22288783625574E+00 -0.42593026263061E+01
N      2     7  0.22734673643474E+01 -0.37049132010338E+00 -0.15419615778895E+01
C      3     6 -0.18051988039890E-01  0.10597386816216E+01 -0.79670012232902E+00
C      4     6 -0.22554616408289E+01 -0.82145511111888E+00 -0.98508916341929E+00
N      5     7 -0.11991440357215E+01 -0.32673183049119E+01 -0.21355674326455E+00
C      6     6 -0.46534107587508E+01  0.36763157438655E-01  0.46513589147129E+00
C      7     6 -0.67854533207796E+01 -0.18292109300117E+01 -0.14366300412075E+00
C      8     6 -0.42493527368278E+01  0.96855502626530E-01  0.33292266406166E+01
C      9     6 -0.54197674651915E+01  0.26708200148767E+01 -0.45528177064634E+00
C     10     6  0.45074921617763E+01  0.18578451612306E+00 -0.22999583399211E-01
C     11     6  0.54816317769545E+01  0.26135893512685E+01  0.10296634104148E+00
C     12     6  0.76284987745071E+01  0.29844452584153E+01  0.15746863347583E+01
N     13     7  0.87491691363021E+01  0.11518494505439E+01  0.28323079514961E+01
C     14     6  0.78105284010698E+01 -0.11494799606023E+01  0.27076136786095E+01
C     15     6  0.56735517952678E+01 -0.17502513064643E+01  0.12969991526714E+01
H     16     1  0.11817278540152E+01 -0.76481118841681E+00 -0.53487272645745E+01
H     17     1  0.33912744445998E+01  0.16911281222904E+01 -0.47753623413691E+01
H     18     1  0.43845070684441E+01 -0.15013718089324E+01 -0.47123041422028E+01
H     19     1  0.15389883042136E+01 -0.22530398332620E+01 -0.10788279116659E+01
H     20     1  0.22008851568852E+00  0.16877039660186E+01  0.11520798924468E+01
H     21     1 -0.30030403196235E+00  0.26974691426829E+01 -0.20073895309837E+01
H     22     1 -0.27792931626722E+01 -0.99503943661395E+00 -0.29817081537244E+01
H     23     1 -0.12754009901205E+01 -0.34709995540576E+01  0.16935928733280E+01
H     24     1 -0.21387740590370E+01 -0.47349294150332E+01 -0.10030627614139E+01
H     25     1 -0.85122532782247E+01 -0.12473535921109E+01  0.79957373955235E+00
H     26     1 -0.63350681511012E+01 -0.37291119509047E+01  0.50040244452186E+00
H     27     1 -0.71553583387050E+01 -0.18883117447967E+01 -0.21645546032560E+01
H     28     1 -0.59642567644023E+01  0.77652660328295E+00  0.42289066685939E+01
H     29     1 -0.27255554444134E+01  0.13627154886326E+01  0.38747836603925E+01
H     30     1 -0.38669099052656E+01 -0.17736056694978E+01  0.40942634194509E+01
H     31     1 -0.72605521100579E+01  0.31587089199401E+01  0.30993547377021E+00
H     32     1 -0.40856407707850E+01  0.41038137811620E+01  0.16392459289698E+00
H     33     1 -0.55556385139933E+01  0.27250482603880E+01 -0.25049685224502E+01
H     34     1  0.46212141284855E+01  0.41724327409656E+01 -0.88668396567659E+00
H     35     1  0.84755132004962E+01  0.48345956977442E+01  0.17431980620728E+01
H     36     1  0.87998165211556E+01 -0.25806426083929E+01  0.37762046905592E+01
H     37     1  0.49606683611677E+01 -0.36596770845357E+01  0.12363422804428E+01
[GTO]
           1 0
 s           4   1.00000000000000     
   51.0493630955799      -0.163120632101274     
   8.79112274068875      -0.199110245810007     
  0.706404222589298       0.318820477536558     
  0.269228134134116       0.127065041842404     
 p           4   1.00000000000000     
   5.82636561408000       0.737164515452096     
   1.51068960187200       0.682163716148503     
  0.532564832880000       0.357830539292537     
  0.212023236906000       5.398303027584788E-002
 
           2 0
 s           4   1.00000000000000     
   63.5940244669410      -0.192343884147216     
   10.9514172315237      -0.234781079249537     
  0.879993102573770       0.375937539017009     
  0.335387152965211       0.149828892718628     
 p           4   1.00000000000000     
   7.29650404814951       0.976586663156674     
   1.89187454507126       0.903722267303458     
  0.666944321108241       0.474049584615364     
  0.265522026741309       7.151606771501186E-002
 
           3 0
 s           4   1.00000000000000     
   51.0493630955799      -0.163120632101274     
   8.79112274068875      -0.199110245810007     
  0.706404222589298       0.318820477536558     
  0.269228134134116       0.127065041842404     
 p           4   1.00000000000000     
   5.82636561408000       0.737164515452096     
   1.51068960187200       0.682163716148503     
  0.532564832880000       0.357830539292537     
  0.212023236906000       5.398303027584788E-002
 
           4 0
 s           4   1.00000000000000     
   51.0493630955799      -0.163120632101274     
   8.79112274068875      -0.199110245810007     
  0.706404222589298       0.318820477536558     
  0.269228134134116       0.127065041842404     
 p           4   1.00000000000000     
   5.82636561408000       0.737164515452096     
   1.51068960187200       0.682163716148503     
  0.532564832880000       0.357830539292537     
  0.212023236906000       5.398303027584788E-002
 
           5 0
 s           4   1.00000000000000     
   63.5940244669410      -0.192343884147216     
   10.9514172315237      -0.234781079249537     
  0.879993102573770       0.375937539017009     
  0.335387152965211       0.149828892718628     
 p           4   1.00000000000000     
   7.29650404814951       0.976586663156674     
   1.89187454507126       0.903722267303458     
  0.666944321108241       0.474049584615364     
  0.265522026741309       7.151606771501186E-002
 
           6 0
 s           4   1.00000000000000     
   51.0493630955799      -0.163120632101274     
   8.79112274068875      -0.199110245810007     
  0.706404222589298       0.318820477536558     
  0.269228134134116       0.127065041842404     
 p           4   1.00000000000000     
   5.82636561408000       0.737164515452096     
   1.51068960187200       0.682163716148503     
  0.532564832880000       0.357830539292537     
  0.212023236906000       5.398303027584788E-002
 
           7 0
 s           4   1.00000000000000     
   51.0493630955799      -0.163120632101274     
   8.79112274068875      -0.199110245810007     
  0.706404222589298       0.318820477536558     
  0.269228134134116       0.127065041842404     
 p           4   1.00000000000000     
   5.82636561408000       0.737164515452096     
   1.51068960187200       0.682163716148503     
  0.532564832880000       0.357830539292537     
  0.212023236906000       5.398303027584788E-002
 
           8 0
 s           4   1.00000000000000     
   51.0493630955799      -0.163120632101274     
   8.79112274068875      -0.199110245810007     
  0.706404222589298       0.318820477536558     
  0.269228134134116       0.127065041842404     
 p           4   1.00000000000000     
   5.82636561408000       0.737164515452096     
   1.51068960187200       0.682163716148503     
  0.532564832880000       0.357830539292537     
  0.212023236906000       5.398303027584788E-002
 
           9 0
 s           4   1.00000000000000     
   51.0493630955799      -0.163120632101274     
   8.79112274068875      -0.199110245810007     
  0.706404222589298       0.318820477536558     
  0.269228134134116       0.127065041842404     
 p           4   1.00000000000000     
   5.82636561408000       0.737164515452096     
   1.51068960187200       0.682163716148503     
  0.532564832880000       0.357830539292537     
  0.212023236906000       5.398303027584788E-002
 
          10 0
 s           4   1.00000000000000     
   51.0493630955799      -0.163120632101274     
   8.79112274068875      -0.199110245810007     
  0.706404222589298       0.318820477536558     
  0.269228134134116       0.127065041842404     
 p           4   1.00000000000000     
   5.82636561408000       0.737164515452096     
   1.51068960187200       0.682163716148503     
  0.532564832880000       0.357830539292537     
  0.212023236906000       5.398303027584788E-002
 
          11 0
 s           4   1.00000000000000     
   51.0493630955799      -0.163120632101274     
   8.79112274068875      -0.199110245810007     
  0.706404222589298       0.318820477536558     
  0.269228134134116       0.127065041842404     
 p           4   1.00000000000000     
   5.82636561408000       0.737164515452096     
   1.51068960187200       0.682163716148503     
  0.532564832880000       0.357830539292537     
  0.212023236906000       5.398303027584788E-002
 
          12 0
 s           4   1.00000000000000     
   51.0493630955799      -0.163120632101274     
   8.79112274068875      -0.199110245810007     
  0.706404222589298       0.318820477536558     
  0.269228134134116       0.127065041842404     
 p           4   1.00000000000000     
   5.82636561408000       0.737164515452096     
   1.51068960187200       0.682163716148503     
  0.532564832880000       0.357830539292537     
  0.212023236906000       5.398303027584788E-002
 
          13 0
 s           4   1.00000000000000     
   63.5940244669410      -0.192343884147216     
   10.9514172315237      -0.234781079249537     
  0.879993102573770       0.375937539017009     
  0.335387152965211       0.149828892718628     
 p           4   1.00000000000000     
   7.29650404814951       0.976586663156674     
   1.89187454507126       0.903722267303458     
  0.666944321108241       0.474049584615364     
  0.265522026741309       7.151606771501186E-002
 
          14 0
 s           4   1.00000000000000     
   51.0493630955799      -0.163120632101274     
   8.79112274068875      -0.199110245810007     
  0.706404222589298       0.318820477536558     
  0.269228134134116       0.127065041842404     
 p           4   1.00000000000000     
   5.82636561408000       0.737164515452096     
   1.51068960187200       0.682163716148503     
  0.532564832880000       0.357830539292537     
  0.212023236906000       5.398303027584788E-002
 
          15 0
 s           4   1.00000000000000     
   51.0493630955799      -0.163120632101274     
   8.79112274068875      -0.199110245810007     
  0.706404222589298       0.318820477536558     
  0.269228134134116       0.127065041842404     
 p           4   1.00000000000000     
   5.82636561408000       0.737164515452096     
   1.51068960187200       0.682163716148503     
  0.532564832880000       0.357830539292537     
  0.212023236906000       5.398303027584788E-002
 
          16 0
 s           3   1.00000000000000     
   3.37022769753360       0.273591105889083     
  0.613891182214980       0.264605406538605     
  0.166142911484160       8.246594753408230E-002
 
          17 0
 s           3   1.00000000000000     
   3.37022769753360       0.273591105889083     
  0.613891182214980       0.264605406538605     
  0.166142911484160       8.246594753408230E-002
 
          18 0
 s           3   1.00000000000000     
   3.37022769753360       0.273591105889083     
  0.613891182214980       0.264605406538605     
  0.166142911484160       8.246594753408230E-002
 
          19 0
 s           3   1.00000000000000     
   3.37022769753360       0.273591105889083     
  0.613891182214980       0.264605406538605     
  0.166142911484160       8.246594753408230E-002
 
          20 0
 s           3   1.00000000000000     
   3.37022769753360       0.273591105889083     
  0.613891182214980       0.264605406538605     
  0.166142911484160       8.246594753408230E-002
 
          21 0
 s           3   1.00000000000000     
   3.37022769753360       0.273591105889083     
  0.613891182214980       0.264605406538605     
  0.166142911484160       8.246594753408230E-002
 
          22 0
 s           3   1.00000000000000     
   3.37022769753360       0.273591105889083     
  0.613891182214980       0.264605406538605     
  0.166142911484160       8.246594753408230E-002
 
          23 0
 s           3   1.00000000000000     
   3.37022769753360       0.273591105889083     
  0.613891182214980       0.264605406538605     
  0.166142911484160       8.246594753408230E-002
 
          24 0
 s           3   1.00000000000000     
   3.37022769753360       0.273591105889083     
  0.613891182214980       0.264605406538605     
  0.166142911484160       8.246594753408230E-002
 
          25 0
 s           3   1.00000000000000     
   3.37022769753360       0.273591105889083     
  0.613891182214980       0.264605406538605     
  0.166142911484160       8.246594753408230E-002
 
          26 0
 s           3   1.00000000000000     
   3.37022769753360       0.273591105889083     
  0.613891182214980       0.264605406538605     
  0.166142911484160       8.246594753408230E-002
 
          27 0
 s           3   1.00000000000000     
   3.37022769753360       0.273591105889083     
  0.613891182214980       0.264605406538605     
  0.166142911484160       8.246594753408230E-002
 
          28 0
 s           3   1.00000000000000     
   3.37022769753360       0.273591105889083     
  0.613891182214980       0.264605406538605     
  0.166142911484160       8.246594753408230E-002
 
          29 0
 s           3   1.00000000000000     
   3.37022769753360       0.273591105889083     
  0.613891182214980       0.264605406538605     
  0.166142911484160       8.246594753408230E-002
 
          30 0
 s           3   1.00000000000000     
   3.37022769753360       0.273591105889083     
  0.613891182214980       0.264605406538605     
  0.166142911484160       8.246594753408230E-002
 
          31 0
 s           3   1.00000000000000     
   3.37022769753360       0.273591105889083     
  0.613891182214980       0.264605406538605     
  0.166142911484160       8.246594753408230E-002
 
          32 0
 s           3   1.00000000000000     
   3.37022769753360       0.273591105889083     
  0.613891182214980       0.264605406538605     
  0.166142911484160       8.246594753408230E-002
 
          33 0
 s           3   1.00000000000000     
   3.37022769753360       0.273591105889083     
  0.613891182214980       0.264605406538605     
  0.166142911484160       8.246594753408230E-002
 
          34 0
 s           3   1.00000000000000     
   3.37022769753360       0.273591105889083     
  0.613891182214980       0.264605406538605     
  0.166142911484160       8.246594753408230E-002
 
          35 0
 s           3   1.00000000000000     
   3.37022769753360       0.273591105889083     
  0.613891182214980       0.264605406538605     
  0.166142911484160       8.246594753408230E-002
 
          36 0
 s           3   1.00000000000000     
   3.37022769753360       0.273591105889083     
  0.613891182214980       0.264605406538605     
  0.166142911484160       8.246594753408230E-002
 
          37 0
 s           3   1.00000000000000     
   3.37022769753360       0.273591105889083     
  0.613891182214980       0.264605406538605     
  0.166142911484160       8.246594753408230E-002
 
[MO]
Sym=     1a
Ene=  -0.852145766220340     
Spin= Alpha
Occup=     2.00000000
           1  0.183523269760418     
           2 -2.900202392680598E-002
           3  4.746296118458448E-003
           4  0.134973540657767     
           5  0.554513323030371     
           6  2.331614766645209E-003
           7  7.820179058549356E-002
           8 -1.617310564775530E-003
           9  0.222908175924343     
          10  0.110019990902319     
          11 -7.538088582810841E-002
          12 -3.944866646227727E-002
          13  6.894797170401594E-002
          14  5.273072480984688E-002
          15  7.947757836305240E-003
          16 -9.594971797872243E-004
          17  3.593213599483625E-002
          18  1.576457801221648E-002
          19  3.797806354941870E-002
          20 -1.261123559806486E-002
          21  3.179263405369515E-003
          22  7.073356078767841E-003
          23 -1.014449197921719E-003
          24 -2.197174251564083E-003
          25 -6.188859808479895E-004
          26  3.160862681896998E-004
          27  9.640778834612926E-006
          28 -6.072461065004858E-005
          29  5.998280903654021E-004
          30  9.470363982536715E-004
          31 -1.626616573288334E-004
          32 -9.954380208324163E-004
          33 -1.348695132176053E-004
          34  7.857585031340674E-004
          35 -5.125624591179030E-004
          36 -1.212408999143535E-004
          37  0.222282478196275     
          38 -0.102822482916370     
          39 -1.318857069617856E-002
          40 -6.989397747392823E-002
          41  5.570441197021293E-002
          42 -2.988927080315899E-002
          43 -4.017698487932143E-002
          44 -1.156873682019881E-002
          45  4.169019779151867E-003
          46 -6.692936025373791E-003
          47 -4.900521272809488E-003
          48 -3.624726373889608E-003
          49  9.140104324624634E-004
          50 -2.079433925601823E-003
          51 -4.050423608160899E-004
          52 -1.387674704815293E-003
          53  3.318312492294007E-003
          54 -6.124387811476556E-003
          55  1.976131679987649E-003
          56 -4.872446303652989E-003
          57  4.796487951828393E-002
          58 -2.894605255731186E-002
          59  2.538800881093703E-002
          60 -2.666420848937086E-002
          61  3.196393346333234E-002
          62  3.459420384646034E-002
          63  3.048918498408870E-002
          64  0.118149991000324     
          65  4.411962327573309E-002
          66  4.152601367760875E-002
          67  1.367005820107919E-002
          68  2.290428745682159E-003
          69 -1.702903976333722E-003
          70  1.995930689675913E-005
          71 -9.154380277842223E-005
          72 -1.515004520941056E-005
          73 -2.609499117010735E-005
          74  7.015105782017774E-004
          75  9.468525605730870E-005
          76 -1.904527902725812E-005
          77  1.511470800226575E-005
          78 -3.274380182033508E-006
          79  1.236593710946682E-002
          80  3.271673364813401E-004
          81  2.515793330651362E-004
          82  1.009229523348457E-002
Sym=     2a
Ene=  -0.826315836061071     
Spin= Alpha
Occup=     2.00000000
           1 -6.197987514690713E-003
           2 -6.721888158058667E-002
           3  1.021748196711842E-003
           4 -1.832051710256271E-002
           5 -8.014711432222425E-003
           6 -0.347623861384493     
           7  6.076951696316774E-003
           8 -6.272968628827039E-002
           9  0.270846472083474     
          10 -1.169940109668208E-002
          11 -9.299217147838588E-002
          12 -4.254209655047762E-002
          13  0.208185087617594     
          14  8.786940343168116E-002
          15  9.049225130226483E-003
          16  6.364323474098380E-003
          17  0.109426667048374     
          18  6.073684479838303E-004
          19  9.156336528674706E-002
          20 -2.753874170317913E-002
          21  3.653083321047269E-002
          22  3.048007093718754E-002
          23 -6.252978233695068E-003
          24 -1.204698067314894E-002
          25  3.764223384009672E-003
          26  5.957192193190243E-003
          27  1.936074196736075E-003
          28 -2.707077047178125E-004
          29  7.835788772653847E-003
          30  3.907933990067676E-003
          31 -1.051127799681384E-003
          32 -8.105730099752559E-003
          33  6.708148902828098E-003
          34  6.199072170874618E-003
          35 -5.881514930062174E-003
          36  9.911781080278786E-005
          37 -0.380993642265247     
          38 -5.789783371124984E-003
          39  1.858863081386514E-002
          40  2.623305873427025E-002
          41 -0.168035409134218     
          42  2.303411504678010E-002
          43  9.551897914127372E-002
          44 -5.400952002538573E-004
          45 -6.705598170145251E-002
          46  3.041584438246298E-002
          47  3.624734625557878E-002
          48  1.398831569137778E-002
          49 -4.787733184207355E-002
          50  3.154864670232552E-002
          51  7.571076865347000E-003
          52  2.130464434925482E-002
          53 -6.954229882429779E-002
          54  3.481261855210566E-002
          55 -2.116561220987284E-002
          56  3.101031481699748E-002
          57 -0.181366529756834     
          58  3.562108794822005E-002
          59 -8.177775255247542E-002
          60  5.078424983796302E-002
          61  2.305890476134961E-002
          62 -6.895722539970161E-003
          63 -1.973516749154667E-002
          64  4.661251314576386E-002
          65  4.991644974573318E-002
          66  6.083399073761769E-002
          67  4.873402811461011E-002
          68  1.528771992744441E-002
          69  8.480336535838425E-003
          70  1.269130281070771E-004
          71  9.912362436198970E-004
          72  8.608456470798007E-004
          73  2.466737448183507E-004
          74  3.378924792556050E-003
          75  1.851182323414465E-003
          76  1.536246350829954E-004
          77  2.497144624576726E-003
          78  1.643538337210997E-003
          79 -2.580383175558766E-002
          80 -4.897165881964786E-003
          81 -5.173684779052863E-003
          82 -3.048068465353024E-002
Sym=     3a
Ene=  -0.815237774756454     
Spin= Alpha
Occup=     2.00000000
           1 -0.348126117767616     
           2  1.734868582849230E-002
           3  1.648137320687384E-002
           4 -0.116553177393800     
           5 -0.107015932675206     
           6 -0.115884573698956     
           7  3.639230096289743E-002
           8  0.358616820545148     
           9  0.209696039116814     
          10 -6.830775225943685E-003
          11 -5.774711956946161E-002
          12  5.979896906107562E-002
          13  0.180382162963134     
          14  5.761927763696660E-002
          15  5.507317745127708E-004
          16  2.823652211873362E-002
          17  0.108830487369070     
          18 -7.511190314230583E-003
          19  8.093777741645666E-002
          20 -1.262453118272241E-002
          21  4.685654142535536E-002
          22  3.187243825669722E-002
          23 -7.732964028999304E-003
          24 -1.066017668898343E-002
          25  6.783330711860655E-003
          26  8.079141513031176E-003
          27  2.881289458893632E-003
          28  1.505043501985952E-004
          29  1.270568721872006E-002
          30  4.969450163682556E-003
          31 -1.354693778480717E-003
          32 -1.101275210801161E-002
          33  8.934190812232776E-003
          34  6.772178040852975E-003
          35 -7.395257848379207E-003
          36  9.708929945137963E-004
          37  0.197871890933503     
          38  1.096921970424652E-002
          39  1.057858883103788E-002
          40  9.846730992631751E-002
          41  0.126168267852245     
          42 -4.495327693512908E-003
          43 -5.684088326516949E-002
          44  2.871231611421307E-002
          45  8.135269241400483E-002
          46 -2.720220686158619E-002
          47 -3.891386753780503E-002
          48 -7.225356107678949E-003
          49  6.869499654610373E-002
          50 -3.939865037763080E-002
          51 -9.275736334047970E-003
          52 -2.475462590518646E-002
          53  8.638357097962006E-002
          54 -3.333465922922365E-002
          55  2.667920972343170E-002
          56 -2.770769852772344E-002
          57  0.147853599632670     
          58 -1.532814402483959E-002
          59  6.404653074243041E-002
          60 -9.958875905959161E-003
          61 -8.492291006906413E-002
          62 -8.301453270172782E-002
          63 -9.267727628209592E-002
          64  2.023638397188470E-002
          65  8.286577962700208E-002
          66  3.075989605535007E-002
          67  3.386743918563283E-002
          68  2.320859635356130E-002
          69  1.066823702307971E-002
          70  3.547412332217560E-004
          71  1.880525703747262E-003
          72  1.375973711192073E-003
          73  6.117742928391312E-004
          74  5.826325729362323E-003
          75  3.180024445403517E-003
          76  3.983368405484268E-004
          77  3.336550625325693E-003
          78  1.905105933209075E-003
          79  1.659680627593882E-002
          80  7.127068610474725E-003
          81  7.800606446669820E-003
          82  2.452603180451688E-002
Sym=     4a
Ene=  -0.797476800484999     
Spin= Alpha
Occup=     2.00000000
           1 -0.236631599147270     
           2  3.699630206036145E-002
           3  1.628287634124211E-002
           4 -2.759929187717016E-002
           5  0.105223107833645     
           6  6.517067282095639E-002
           7  5.701302676312513E-002
           8  0.283982558668881     
           9  1.427742957729641E-002
          10  0.100615942236700     
          11  2.102947040162368E-002
          12  5.297603599778574E-002
          13 -0.178379060530263     
          14 -1.020839088967935E-002
          15  2.752375837595677E-002
          16 -3.693074902077743E-003
          17 -0.120161201961182     
          18  3.483621862419704E-002
          19 -6.245618435842568E-002
          20  2.472815547226694E-002
          21 -6.790585770715650E-002
          22 -2.997763810639776E-002
          23  1.390079335190200E-002
          24  1.670679382927119E-002
          25 -1.751759411324932E-002
          26 -1.475525035095468E-002
          27 -5.710911243559108E-003
          28  3.035002372419575E-005
          29 -1.603318661867629E-002
          30 -2.648234564363753E-003
          31  2.862733134977182E-003
          32  1.433378772371240E-002
          33 -1.508621678346593E-002
          34 -7.666624187051398E-003
          35  1.193580078103694E-002
          36 -9.642424073024533E-004
          37  3.648236435439758E-002
          38 -0.183664979449504     
          39 -3.936775706214726E-002
          40 -6.736028891884967E-002
          41 -0.145700812999117     
          42 -7.788670936386911E-002
          43  2.352350662587613E-002
          44 -5.064145629520326E-002
          45 -0.222945193329823     
          46  2.754513056907217E-002
          47  9.392196172950745E-002
          48 -1.352316739454332E-003
          49 -0.236095351284473     
          50  0.102518134016211     
          51  2.325067210978866E-002
          52  6.908348182349471E-002
          53 -0.220006558304296     
          54  3.254939394567977E-002
          55 -7.991456771923418E-002
          56  4.418286787530013E-002
          57 -0.130019491112793     
          58 -7.930660606056197E-002
          59 -5.180445424355709E-002
          60 -3.506276885563178E-002
          61 -8.720013321680116E-002
          62 -6.289022938705199E-002
          63 -6.718244873497638E-002
          64  7.579222013515620E-003
          65  3.368708073603523E-002
          66 -1.097687754310290E-002
          67 -5.671429356847015E-002
          68 -2.171425505011899E-002
          69 -2.650340600463547E-002
          70 -1.447580446973515E-003
          71 -4.968270907276687E-003
          72 -4.142880854151179E-003
          73 -1.558291420025212E-003
          74 -2.635761767461109E-003
          75 -4.728380302700725E-003
          76 -1.312144507700747E-003
          77 -3.370250562485222E-003
          78 -4.133359838843019E-003
          79 -1.654193866247440E-002
          80 -2.652992823301461E-002
          81 -2.616320631602304E-002
          82 -1.026309303158649E-002
Sym=     5a
Ene=  -0.789847681264195     
Spin= Alpha
Occup=     2.00000000
           1  1.721251981290103E-002
           2  4.629064925757931E-002
           3 -6.675224634084824E-002
           4  9.054093732875969E-003
           5  6.137729489064031E-003
           6  0.197169451076860     
           7 -0.255912282342397     
           8  1.807703740174022E-002
           9 -0.213649829154995     
          10 -0.132468403308847     
          11 -6.132730338988266E-002
          12  4.768466973970541E-002
          13  0.261657429332691     
          14 -2.200192347985215E-002
          15 -0.119394531340611     
          16  4.680620697597782E-002
          17  0.296768489411630     
          18 -5.399911852295397E-002
          19  0.110465179351842     
          20 -3.037654381571297E-002
          21  0.129997417263015     
          22  4.537247336616776E-002
          23 -3.609341490825876E-002
          24 -2.131609125041763E-002
          25  4.183259391421366E-002
          26  3.144180870815451E-002
          27  1.148885913597949E-002
          28  1.634588298718938E-003
          29  3.775060105556331E-002
          30  4.597975131523997E-003
          31 -7.978987063355003E-003
          32 -2.940108114357936E-002
          33  2.267491578226636E-002
          34  8.506713110611562E-003
          35 -2.140334884696198E-002
          36  3.841460191521151E-003
          37  7.262528304040186E-002
          38 -2.663815257128999E-002
          39 -0.153082810736207     
          40 -3.053526200266101E-002
          41 -0.146809926727827     
          42 -1.803363212923091E-002
          43  2.894402063775358E-003
          44 -2.573020340856567E-002
          45 -0.148034912999310     
          46  2.585940207252406E-002
          47  4.556237514831643E-002
          48  5.070818333068042E-003
          49 -0.124564266764480     
          50  4.930803380726788E-002
          51 -5.607823388396222E-003
          52  3.564347939207141E-002
          53 -5.703249461905129E-002
          54 -1.550111285854502E-002
          55 -4.799058508965778E-002
          56 -1.750553883712298E-003
          57  9.160568559932941E-002
          58 -5.613527013960919E-002
          59 -5.706860063264546E-003
          60 -4.830865657423439E-002
          61 -2.906646696801690E-003
          62 -1.969774367442807E-002
          63  3.896852704671525E-002
          64  0.106919976530433     
          65 -6.666513088108536E-002
          66 -9.673569156392095E-002
          67  6.729666506651917E-002
          68  7.091091318149867E-002
          69  6.850597571327530E-002
          70  4.196175386757019E-003
          71  1.303270042918250E-002
          72  9.398450394940472E-003