48
 energy: -67.986348231142 gnorm: 0.000196935869 xtb: 6.7.1 (edcfbbe)
C            4.19232887074587        0.88001328106666       -1.15297250530939
C            3.25429788994319        0.40783273184422       -0.03584657471677
C            2.72287697826285        1.63156309040274        0.71706967913201
C            4.04062781586764       -0.48519271158305        0.92764199588361
C            2.11506598230003       -0.42261890040608       -0.67967853182372
N            1.19754764121035        0.33891327071165       -1.53502797292971
C            1.20672878978074       -1.13689640627151        0.35790019443531
N           -0.08449803915195       -1.38165736324245       -0.31453412992762
C           -1.31101081126759       -1.11314377762707        0.48990025247412
C           -2.55684897477175       -1.47715045845007       -0.28612844471186
C           -2.61346825918093       -1.45067937447068       -1.67536845940688
C           -3.78651331118668       -1.76619219590265       -2.33735286404408
C           -4.92103287476274       -2.10438809319525       -1.61333134983829
Cl          -6.37782357393264       -2.49848236834747       -2.43759837238243
C           -4.87918163948108       -2.12550979457548       -0.22507680492772
C           -3.70254431918564       -1.81477212584806        0.42705211201593
C           -1.31275422268832        0.34464939813804        0.89613100124986
C           -1.52912363596960        1.33984747740501       -0.05190485412021
C           -1.47276163966887        2.67342611416060        0.30413976553398
C           -1.20035900606605        3.02612963471677        1.62088449826763
Cl          -1.10944394305400        4.68648437777023        2.06233936022726
C           -1.00623782633881        2.04135293901288        2.58046998649897
C           -1.06286583354803        0.70908428711183        2.21431732824223
H            5.01180687553190        1.45373047591782       -0.73081387746287
H            3.67517801826794        1.51877607413913       -1.86579511971856
H            4.61561706471950        0.03279590212916       -1.68748473968411
H            2.27667479693864        2.36221251340351        0.04509200667732
H            3.55182672626767        2.12353741643619        1.21735274660713
H            1.99068005428608        1.36768131543187        1.47652536767942
H            3.45932943405248       -0.72572551253024        1.81328422797857
H            4.94052362818563        0.02965904063523        1.25084811452117
H            4.34207703439133       -1.41004905313986        0.44213477937352
H            2.57863829396570       -1.19031129029602       -1.30936379675264
H            1.01055494856613        1.25507767269723       -1.13760588410479
H            1.56140673312729        0.46211433004459       -2.47122061938331
H            1.02631433292072       -0.47554392633730        1.20479368932402
H            1.65876215094151       -2.05983947143224        0.71387880526148
H            0.05151710883005       -0.62540583314753       -1.11612005927746
H           -0.14111749982964       -2.31787480363817       -0.71730605136785
H           -1.26406814276645       -1.73419278132415        1.39208562834678
H           -1.75124989280271       -1.18651396462272       -2.27097302480689
H           -3.82307031099976       -1.74888756450011       -3.41449858618040
H           -5.76111443826411       -2.38673005313399        0.33639432704757
H           -3.67389451282588       -1.83056862446870        1.50593438226241
H           -1.76427449745179        1.07386922932370       -1.07135539423439
H           -1.64520149223649        3.44270535821612       -0.43104231499998
H           -0.81256231272406        2.31805095403962        3.60394779376264
H           -0.91736015888846       -0.05118043623227        2.96828228931303
