[Molden Format]
[Title]
[Atoms] AU
N      1     7  0.34581556316976E+00  0.13191586594454E+01 -0.31049021419550E+01
C      2     6  0.12766605122868E+01 -0.74779076080651E+00 -0.14912035037511E+01
C      3     6 -0.35206088241817E+00 -0.61267856385413E+00  0.94088762849903E+00
N      4     7 -0.29238539237849E+01  0.11631376265128E+00  0.13028892792565E+00
C      5     6 -0.45629306816074E+01 -0.20596613900520E+01 -0.48316921347546E+00
C      6     6 -0.70351196596182E+01 -0.10919591079384E+01 -0.16402374634817E+01
O      7     8 -0.82688493084916E+01  0.55802172533604E+00  0.27826842105390E-01
C      8     6 -0.67620821013318E+01  0.26608283849783E+01  0.60438942006827E+00
C      9     6 -0.42776812424355E+01  0.18428515769872E+01  0.18520619683759E+01
C     10     6  0.40651083053132E+01 -0.63741694590002E+00 -0.88653693180813E+00
C     11     6  0.56169103119986E+01 -0.26777840811774E+01 -0.14447017374953E+01
C     12     6  0.81770656469475E+01 -0.25731804892275E+01 -0.92028997820353E+00
C     13     6  0.92079816871849E+01 -0.42578154562367E+00  0.16036635657350E+00
C     14     6  0.76725607958356E+01  0.16192251290382E+01  0.71653743411463E+00
C     15     6  0.51131076576632E+01  0.15145993965657E+01  0.19793555530451E+00
H     16     1  0.12689256095910E+01  0.29545979429570E+01 -0.27002437033263E+01
H     17     1  0.64643721910182E+00  0.95181678380066E+00 -0.49595417800530E+01
H     18     1  0.87420526806290E+00 -0.25262988663653E+01 -0.24684515840455E+01
H     19     1  0.39733894843848E+00  0.84605718349074E+00  0.21906740034889E+01
H     20     1 -0.35209770271156E+00 -0.24059676196893E+01  0.19505163019777E+01
H     21     1 -0.23915304141193E+01  0.10843249576490E+01 -0.16026865346887E+01
H     22     1 -0.49721851275960E+01 -0.30895809078751E+01  0.12597505732745E+01
H     23     1 -0.35948830310994E+01 -0.33052561500205E+01 -0.18060081496477E+01
H     24     1 -0.66407158808573E+01 -0.14256248603483E+00 -0.34493070979537E+01
H     25     1 -0.83289561854444E+01 -0.26611271553022E+01 -0.19725752080047E+01
H     26     1 -0.63528562644501E+01  0.37580079595528E+01 -0.11159041732493E+01
H     27     1 -0.78598445665054E+01  0.38278115044357E+01  0.19003147427387E+01
H     28     1 -0.31068833321436E+01  0.34917347435862E+01  0.22454762222535E+01
H     29     1 -0.46786675235293E+01  0.84780153435786E+00  0.36167532722089E+01
H     30     1  0.48229482075029E+01 -0.43552877742351E+01 -0.22948505831249E+01
H     31     1  0.93646047121108E+01 -0.41696702766617E+01 -0.13620083506863E+01
H     32     1  0.11203181001011E+02 -0.34244560525407E+00  0.56673465394929E+00
H     33     1  0.84661531142073E+01  0.32990801387231E+01  0.15556716439165E+01
H     34     1  0.39421932677191E+01  0.31322183424639E+01  0.64096987867582E+00
[GTO]
           1 0
 s           4   1.00000000000000     
   63.5940244669410      -0.192343884147216     
   10.9514172315237      -0.234781079249537     
  0.879993102573770       0.375937539017009     
  0.335387152965211       0.149828892718628     
 p           4   1.00000000000000     
   7.29650404814951       0.976586663156674     
   1.89187454507126       0.903722267303458     
  0.666944321108241       0.474049584615364     
  0.265522026741309       7.151606771501186E-002
 
           2 0
 s           4   1.00000000000000     
   51.0493630955799      -0.163120632101274     
   8.79112274068875      -0.199110245810007     
  0.706404222589298       0.318820477536558     
  0.269228134134116       0.127065041842404     
 p           4   1.00000000000000     
   5.82636561408000       0.737164515452096     
   1.51068960187200       0.682163716148503     
  0.532564832880000       0.357830539292537     
  0.212023236906000       5.398303027584788E-002
 
           3 0
 s           4   1.00000000000000     
   51.0493630955799      -0.163120632101274     
   8.79112274068875      -0.199110245810007     
  0.706404222589298       0.318820477536558     
  0.269228134134116       0.127065041842404     
 p           4   1.00000000000000     
   5.82636561408000       0.737164515452096     
   1.51068960187200       0.682163716148503     
  0.532564832880000       0.357830539292537     
  0.212023236906000       5.398303027584788E-002
 
           4 0
 s           4   1.00000000000000     
   63.5940244669410      -0.192343884147216     
   10.9514172315237      -0.234781079249537     
  0.879993102573770       0.375937539017009     
  0.335387152965211       0.149828892718628     
 p           4   1.00000000000000     
   7.29650404814951       0.976586663156674     
   1.89187454507126       0.903722267303458     
  0.666944321108241       0.474049584615364     
  0.265522026741309       7.151606771501186E-002
 
           5 0
 s           4   1.00000000000000     
   51.0493630955799      -0.163120632101274     
   8.79112274068875      -0.199110245810007     
  0.706404222589298       0.318820477536558     
  0.269228134134116       0.127065041842404     
 p           4   1.00000000000000     
   5.82636561408000       0.737164515452096     
   1.51068960187200       0.682163716148503     
  0.532564832880000       0.357830539292537     
  0.212023236906000       5.398303027584788E-002
 
           6 0
 s           4   1.00000000000000     
   51.0493630955799      -0.163120632101274     
   8.79112274068875      -0.199110245810007     
  0.706404222589298       0.318820477536558     
  0.269228134134116       0.127065041842404     
 p           4   1.00000000000000     
   5.82636561408000       0.737164515452096     
   1.51068960187200       0.682163716148503     
  0.532564832880000       0.357830539292537     
  0.212023236906000       5.398303027584788E-002
 
           7 0
 s           4   1.00000000000000     
   69.1379619061966      -0.204787563700778     
   11.9061291327073      -0.249970231368273     
  0.956708277443407       0.400258802406396     
  0.364625204960737       0.159522066676936     
 p           4   1.00000000000000     
   8.21241932577816        1.13215567991868     
   2.12935769970981        1.04768407822548     
  0.750664482023609       0.549565082171590     
  0.298852465432831       8.290848659276662E-002
 
           8 0
 s           4   1.00000000000000     
   51.0493630955799      -0.163120632101274     
   8.79112274068875      -0.199110245810007     
  0.706404222589298       0.318820477536558     
  0.269228134134116       0.127065041842404     
 p           4   1.00000000000000     
   5.82636561408000       0.737164515452096     
   1.51068960187200       0.682163716148503     
  0.532564832880000       0.357830539292537     
  0.212023236906000       5.398303027584788E-002
 
           9 0
 s           4   1.00000000000000     
   51.0493630955799      -0.163120632101274     
   8.79112274068875      -0.199110245810007     
  0.706404222589298       0.318820477536558     
  0.269228134134116       0.127065041842404     
 p           4   1.00000000000000     
   5.82636561408000       0.737164515452096     
   1.51068960187200       0.682163716148503     
  0.532564832880000       0.357830539292537     
  0.212023236906000       5.398303027584788E-002
 
          10 0
 s           4   1.00000000000000     
   51.0493630955799      -0.163120632101274     
   8.79112274068875      -0.199110245810007     
  0.706404222589298       0.318820477536558     
  0.269228134134116       0.127065041842404     
 p           4   1.00000000000000     
   5.82636561408000       0.737164515452096     
   1.51068960187200       0.682163716148503     
  0.532564832880000       0.357830539292537     
  0.212023236906000       5.398303027584788E-002
 
          11 0
 s           4   1.00000000000000     
   51.0493630955799      -0.163120632101274     
   8.79112274068875      -0.199110245810007     
  0.706404222589298       0.318820477536558     
  0.269228134134116       0.127065041842404     
 p           4   1.00000000000000     
   5.82636561408000       0.737164515452096     
   1.51068960187200       0.682163716148503     
  0.532564832880000       0.357830539292537     
  0.212023236906000       5.398303027584788E-002
 
          12 0
 s           4   1.00000000000000     
   51.0493630955799      -0.163120632101274     
   8.79112274068875      -0.199110245810007     
  0.706404222589298       0.318820477536558     
  0.269228134134116       0.127065041842404     
 p           4   1.00000000000000     
   5.82636561408000       0.737164515452096     
   1.51068960187200       0.682163716148503     
  0.532564832880000       0.357830539292537     
  0.212023236906000       5.398303027584788E-002
 
          13 0
 s           4   1.00000000000000     
   51.0493630955799      -0.163120632101274     
   8.79112274068875      -0.199110245810007     
  0.706404222589298       0.318820477536558     
  0.269228134134116       0.127065041842404     
 p           4   1.00000000000000     
   5.82636561408000       0.737164515452096     
   1.51068960187200       0.682163716148503     
  0.532564832880000       0.357830539292537     
  0.212023236906000       5.398303027584788E-002
 
          14 0
 s           4   1.00000000000000     
   51.0493630955799      -0.163120632101274     
   8.79112274068875      -0.199110245810007     
  0.706404222589298       0.318820477536558     
  0.269228134134116       0.127065041842404     
 p           4   1.00000000000000     
   5.82636561408000       0.737164515452096     
   1.51068960187200       0.682163716148503     
  0.532564832880000       0.357830539292537     
  0.212023236906000       5.398303027584788E-002
 
          15 0
 s           4   1.00000000000000     
   51.0493630955799      -0.163120632101274     
   8.79112274068875      -0.199110245810007     
  0.706404222589298       0.318820477536558     
  0.269228134134116       0.127065041842404     
 p           4   1.00000000000000     
   5.82636561408000       0.737164515452096     
   1.51068960187200       0.682163716148503     
  0.532564832880000       0.357830539292537     
  0.212023236906000       5.398303027584788E-002
 
          16 0
 s           3   1.00000000000000     
   3.37022769753360       0.273591105889083     
  0.613891182214980       0.264605406538605     
  0.166142911484160       8.246594753408230E-002
 
          17 0
 s           3   1.00000000000000     
   3.37022769753360       0.273591105889083     
  0.613891182214980       0.264605406538605     
  0.166142911484160       8.246594753408230E-002
 
          18 0
 s           3   1.00000000000000     
   3.37022769753360       0.273591105889083     
  0.613891182214980       0.264605406538605     
  0.166142911484160       8.246594753408230E-002
 
          19 0
 s           3   1.00000000000000     
   3.37022769753360       0.273591105889083     
  0.613891182214980       0.264605406538605     
  0.166142911484160       8.246594753408230E-002
 
          20 0
 s           3   1.00000000000000     
   3.37022769753360       0.273591105889083     
  0.613891182214980       0.264605406538605     
  0.166142911484160       8.246594753408230E-002
 
          21 0
 s           3   1.00000000000000     
   3.37022769753360       0.273591105889083     
  0.613891182214980       0.264605406538605     
  0.166142911484160       8.246594753408230E-002
 
          22 0
 s           3   1.00000000000000     
   3.37022769753360       0.273591105889083     
  0.613891182214980       0.264605406538605     
  0.166142911484160       8.246594753408230E-002
 
          23 0
 s           3   1.00000000000000     
   3.37022769753360       0.273591105889083     
  0.613891182214980       0.264605406538605     
  0.166142911484160       8.246594753408230E-002
 
          24 0
 s           3   1.00000000000000     
   3.37022769753360       0.273591105889083     
  0.613891182214980       0.264605406538605     
  0.166142911484160       8.246594753408230E-002
 
          25 0
 s           3   1.00000000000000     
   3.37022769753360       0.273591105889083     
  0.613891182214980       0.264605406538605     
  0.166142911484160       8.246594753408230E-002
 
          26 0
 s           3   1.00000000000000     
   3.37022769753360       0.273591105889083     
  0.613891182214980       0.264605406538605     
  0.166142911484160       8.246594753408230E-002
 
          27 0
 s           3   1.00000000000000     
   3.37022769753360       0.273591105889083     
  0.613891182214980       0.264605406538605     
  0.166142911484160       8.246594753408230E-002
 
          28 0
 s           3   1.00000000000000     
   3.37022769753360       0.273591105889083     
  0.613891182214980       0.264605406538605     
  0.166142911484160       8.246594753408230E-002
 
          29 0
 s           3   1.00000000000000     
   3.37022769753360       0.273591105889083     
  0.613891182214980       0.264605406538605     
  0.166142911484160       8.246594753408230E-002
 
          30 0
 s           3   1.00000000000000     
   3.37022769753360       0.273591105889083     
  0.613891182214980       0.264605406538605     
  0.166142911484160       8.246594753408230E-002
 
          31 0
 s           3   1.00000000000000     
   3.37022769753360       0.273591105889083     
  0.613891182214980       0.264605406538605     
  0.166142911484160       8.246594753408230E-002
 
          32 0
 s           3   1.00000000000000     
   3.37022769753360       0.273591105889083     
  0.613891182214980       0.264605406538605     
  0.166142911484160       8.246594753408230E-002
 
          33 0
 s           3   1.00000000000000     
   3.37022769753360       0.273591105889083     
  0.613891182214980       0.264605406538605     
  0.166142911484160       8.246594753408230E-002
 
          34 0
 s           3   1.00000000000000     
   3.37022769753360       0.273591105889083     
  0.613891182214980       0.264605406538605     
  0.166142911484160       8.246594753408230E-002
 
[MO]
Sym=     1a
Ene=  -0.860116598012795     
Spin= Alpha
Occup=     2.00000000
           1  1.981853683755592E-002
           2 -1.012706789218576E-002
           3 -1.257670379585882E-002
           4  2.067667010471125E-002
           5  3.954606066300253E-002
           6 -2.988924772414187E-002
           7  8.033525569686138E-003
           8  1.444556741276531E-002
           9  0.151463881366686     
          10 -0.100290991066734     
          11  2.417267848555450E-002
          12 -3.128186550257991E-002
          13  0.492462371527693     
          14 -6.294651032927265E-002
          15 -3.039720956122222E-002
          16  5.310470652009154E-002
          17  0.216323634029497     
          18  4.795950097315884E-002
          19  0.116883264373707     
          20  3.345458507210056E-002
          21  0.123028260129709     
          22  2.931206950434995E-002
          23  4.365209551171428E-002
          24  6.206923171928899E-002
          25  0.237829772683495     
          26  7.979374162557334E-002
          27 -1.872798737065819E-003
          28 -6.654237408193556E-003
          29  0.123066557639975     
          30  2.038683359698509E-002
          31 -7.802426228396152E-002
          32 -1.069544428625048E-002
          33  0.215075521762508     
          34  3.234242317087330E-002
          35 -8.918217309724681E-002
          36 -8.969936474262882E-002
          37  1.089988007671938E-003
          38 -4.109493068653255E-003
          39  5.118880935536837E-004
          40  1.979917770414089E-004
          41 -5.641401679448243E-004
          42 -9.142274319895391E-005
          43 -5.781169765128300E-005
          44  7.325500317622811E-006
          45 -1.520114112097279E-004
          46  7.873387648629822E-005
          47 -2.187445009993267E-005
          48  8.895894390390610E-006
          49 -6.704204104673518E-005
          50  3.507952948891007E-005
          51  2.457542615725369E-006
          52  8.649890552158450E-006
          53 -1.349555085473054E-004
          54  3.470289070734339E-005
          55  2.092944880133047E-005
          56  1.830679470837921E-005
          57  2.995574391266633E-005
          58 -6.302284122470967E-004
          59 -9.273084368031137E-005
          60 -6.929927069302845E-005
          61  4.878047752110477E-004
          62 -1.586596833431421E-003
          63  7.883021481152020E-003
          64  2.737463863423987E-002
          65  2.789801486158813E-002
          66  9.886637960172638E-002
          67  3.994345642366658E-002
          68  3.470267841573315E-002
          69  1.804525574049065E-002
          70  7.917017643096895E-003
          71  1.810740240083723E-002
          72  7.901250395276952E-003
          73  3.441201777420423E-002
          74  3.955515856124443E-002
          75 -7.912395925878096E-006
          76  7.079475063891015E-006
          77  2.682998528006012E-006
          78  2.425541328668959E-006
          79  3.742699834482548E-004
Sym=     2a
Ene=  -0.848974120497407     
Spin= Alpha
Occup=     2.00000000
           1 -3.979973560116357E-002
           2  8.232161363756782E-003
           3  2.410197589091272E-002
           4 -3.538821287781607E-002
           5 -8.349631554497917E-002
           6  4.475682268171291E-002
           7 -1.541912084267018E-002
           8 -2.562919550690455E-002
           9 -0.208658251139562     
          10  8.149234856742874E-002
          11 -2.821226175492746E-002
          12  4.909593590541344E-002
          13 -0.255776003759483     
          14 -0.154042417915953     
          15  3.939453985234850E-002
          16 -2.692167272382358E-002
          17 -6.292479639864117E-003
          18 -8.857486569495913E-002
          19  2.185239009888606E-003
          20 -1.452249366362662E-002
          21  0.183524105605179     
          22 -4.041957557580554E-002
          23  9.093508872696732E-002
          24  9.392721249013766E-002
          25  0.556346110449223     
          26  0.100664393923567     
          27  5.414613658556546E-003
          28 -2.040151932927269E-002
          29  0.186272412579992     
          30 -5.402415350519396E-002
          31 -0.121209066319946     
          32 -3.217080567554011E-002
          33  3.978180984786018E-003
          34 -8.347446146682767E-002
          35  2.008203725052498E-002
          36 -5.640840729967683E-003
          37 -8.542550540875235E-003
          38  1.145498876848271E-002
          39 -1.187099147868334E-003
          40 -4.273372877822401E-004
          41  1.409957644800814E-004
          42  1.051454990483652E-003
          43 -4.538555139202723E-004
          44 -1.715584761008722E-004
          45  3.150632782173000E-004
          46 -6.298630777683423E-005
          47  1.828612993009532E-005
          48 -1.845157389048995E-005
          49  1.560265583966034E-004
          50 -4.489689933863958E-005
          51 -6.292882955590533E-006
          52 -1.629563536954759E-005
          53  2.366404106480010E-004
          54  8.542374635199277E-005
          55  4.054571738009179E-006
          56 -3.121338534419368E-006
          57 -1.641263061375776E-003
          58  2.345201140471771E-003
          59  9.789609245118638E-004
          60  4.861681075451547E-004
          61 -4.066130174854863E-003
          62  2.856431578508211E-005
          63 -1.680043977111899E-002
          64 -4.258963673107225E-002
          65 -3.975375842208787E-002
          66 -6.708860579282151E-002
          67 -2.760687043106550E-003
          68 -1.319048342985235E-002
          69  2.053269395114691E-002
          70  1.535825682823508E-002
          71  2.128701538797901E-002
          72  1.574288130368066E-002
          73 -1.000935648184514E-002
          74 -7.560449630835491E-004
          75 -1.176910677016064E-004
          76 -1.608252010021741E-005
          77 -6.255638976927053E-006
          78 -8.139119686522997E-006
          79 -1.191721605603853E-003
Sym=     3a
Ene=  -0.826831475515756     
Spin= Alpha
Occup=     2.00000000
           1  0.125236924166730     
           2  4.778783025811273E-003
           3 -6.940021041066112E-002
           4  8.323490362692286E-002
           5  0.242315651333083     
           6 -7.678766523744560E-002
           7  4.040252564356605E-002
           8  4.390998928867511E-002
           9  0.304101833503023     
          10 -7.894736248841430E-003
          11  1.509377632695227E-002
          12 -0.103860666569355     
          13 -6.317802278162253E-002
          14  0.334060829796358     
          15 -9.866638743042870E-002
          16 -8.674502712665838E-002
          17 -9.560989488293685E-002
          18  2.045872914535295E-002
          19 -5.926909836214802E-002
          20 -2.640313349770902E-002
          21  4.686489700577477E-002
          22 -8.143727758282016E-002
          23  5.138574353320786E-002
          24  2.925326026569691E-002
          25  0.348652794980586     
          26 -1.948108882081340E-002
          27 -4.996485271680264E-003
          28 -2.644634915931338E-002
          29 -1.813044155007297E-002
          30 -0.117729352290952     
          31 -3.045870093057002E-002
          32 -3.920010837554768E-002
          33 -0.258706210500330     
          34 -2.465184037212708E-003
          35  5.415430802935876E-002
          36  6.932926931880834E-002
          37  4.848828838038712E-002
          38 -4.218976948256160E-002
          39  4.061823099886754E-003
          40 -1.397317021864530E-003
          41  4.741667884005809E-003
          42 -7.102782486036537E-003
          43  4.153679203285405E-003
          44  9.322815680795526E-004
          45 -9.050778963513264E-004
          46 -3.906504259373314E-004
          47  1.380082645032698E-004
          48  4.019955434187633E-005
          49 -5.419248359146369E-004
          50 -4.424712630169356E-005
          51  2.925499808263992E-005
          52  2.684018691927388E-005
          53 -4.295395120709648E-004
          54 -1.061477835463949E-003
          55 -2.779192199767249E-004
          56 -2.305226581537560E-004
          57  1.145584497321173E-002
          58 -1.057483442144448E-002
          59 -6.112505161511094E-003
          60 -3.515168396816474E-003
          61  1.935815952541914E-002
          62  1.026258538509949E-002
          63  5.464089533063618E-002
          64  6.611643792690000E-002
          65  6.528214386666677E-002
          66  3.903584666120209E-002
          67 -2.640731971569804E-002
          68 -4.623997227757032E-004
          69  1.066211098034294E-006
          70  6.463673088801909E-003
          71 -1.523275986311992E-002
          72 -6.373020793888629E-003
          73 -5.332429599398424E-002
          74 -6.127011879900070E-002
          75  1.441919928013387E-003
          76  7.202070086135977E-006
          77 -9.625467534029715E-007
          78  8.733537311744650E-006
          79  5.135548830651773E-003
Sym=     4a
Ene=  -0.820353657956325     
Spin= Alpha
Occup=     2.00000000
           1 -2.054431882508884E-002
           2 -2.899550803047266E-003
           3  2.487155585992846E-003
           4 -1.773794035872147E-002
           5 -2.724580217586991E-002
           6  1.916833962677218E-003
           7 -1.995496482183056E-002
           8 -1.278253201586630E-002
           9 -8.878978490930685E-002
          10  4.827634289421982E-003
          11 -8.129406645903420E-002
          12 -2.429117682184079E-002
          13 -6.990843827464959E-004
          14 -0.125795410697841     
          15 -0.333561088280730     
          16 -0.204434132633254     
          17  0.391343449694139     
          18  3.961231769852727E-002
          19  6.763974579679369E-002
          20 -2.580201940629053E-002
          21  0.168424351769705     
          22  8.816159025358583E-002
          23 -3.661383175568692E-002
          24  2.954468649654276E-002
          25 -8.827359104890629E-002
          26  3.509134798967084E-003
          27 -9.574960193390301E-002
          28 -5.120526604699004E-002
          29 -0.161527509948085     
          30 -2.990312705842550E-002
          31  3.240574105854958E-002
          32 -2.285839406894992E-002
          33 -0.293435512740330     
          34 -5.385846271696884E-002
          35 -8.133583928937385E-003
          36  4.403553014993022E-002
          37 -9.900943762351065E-003
          38  6.924271213512564E-003
          39 -2.787014810350738E-003
          40 -9.284578059699130E-004
          41 -5.857677215949096E-004
          42  9.142983672361792E-004
          43 -9.069591776496589E-004
          44 -2.807955709450003E-004
          45  1.170651177501615E-004
          46  8.078153068542811E-005
          47 -6.917249890130459E-005
          48 -2.454608370356121E-005
          49  3.965003682789369E-005
          50  7.607604869752931E-005
          51 -2.006598588144357E-005
          52 -1.452249747947920E-006
          53 -1.897397087591866E-004
          54  4.888222478441889E-004
          55  1.107606244265005E-004
          56  9.520157942051282E-005
          57 -4.289380407128428E-003
          58  3.142193054987948E-003
          59  1.475078389311169E-003
          60  6.392856073657681E-004
          61 -7.858906150852413E-003
          62  1.361038293343592E-004
          63  4.199724140997864E-003
          64 -5.755740057843673E-002
          65 -1.987522790693006E-003
          66 -8.474074013993634E-003
          67  8.924738849664876E-002
          68  0.116520619839576     
          69  4.200681070447503E-002
          70  3.678609115236212E-002
          71 -3.456933377038696E-002
          72 -3.473238403125817E-002
          73 -0.102261644963075     
          74 -6.490115987442568E-002
          75 -5.226930895760936E-005
          76  4.529417049019420E-007
          77 -2.266854435978458E-007
          78 -4.325943781517883E-006
          79 -2.484131139571522E-003
Sym=     5a
Ene=  -0.795409127436107     
Spin= Alpha
Occup=     2.00000000
           1  0.313825953612694     
           2  6.411913849147773E-002
           3 -0.118583370397409     
           4  9.644598575631105E-002
           5  0.365004376485866     
           6  1.096959414982283E-002
           7  8.596696650722420E-002
           8 -7.153354841166711E-002
           9 -0.119878063981253     
          10  0.166259323875703     
          11 -7.398949128856354E-003
          12 -9.745690370032324E-002
          13 -0.106600203180318     
          14 -0.176033965131849     
          15  8.791021022822029E-002
          16 -0.159007411190678     
          17  6.876178278365598E-002
          18 -4.514464483237983E-002
          19  2.685815474146085E-002
          20 -5.084878687762923E-002
          21  1.142351166437193E-002
          22  8.865549321457980E-002
          23 -2.779179682191647E-002
          24 -2.097841451397368E-002
          25 -0.180417650038782     
          26  6.723020685574764E-002
          27  5.520971507572337E-002
          28  3.136448682508200E-002
          29  0.138147266270373     
          30  7.834168463525076E-002
          31  4.792022426662107E-003
          32  2.259001245031747E-002
          33  0.107945627506669     
          34 -9.296754200484611E-002
          35  5.260560822909875E-002
          36 -4.810392788363674E-002
          37  0.159893959345040     
          38 -7.629077220038448E-002
          39  1.251437715734124E-002
          40 -2.330751317556214E-002
          41  3.848744137170483E-002
          42 -2.584843548578875E-002
          43  2.216912700038871E-002
          44  2.421860323753043E-003
          45  4.011029230407853E-003
          46 -6.151205717494076E-003
          47  2.825373215994697E-003
          48 -2.048880990984811E-004
          49  2.325368938515966E-003
          50 -3.261610106471960E-003
          51  1.051568244479627E-004
          52 -6.544301221052567E-004
          53  5.938509125319858E-003
          54 -7.433791705413276E-003
          55 -3.203908974472315E-003
          56 -3.028199004658598E-003
          57  5.147265865201282E-002
          58 -2.661405838972864E-002
          59 -2.362864722849246E-002
          60 -1.780126658299140E-002
          61  7.051975794292913E-002
          62  6.654751669258761E-002
          63  9.676599788042037E-002
          64 -3.901769625756703E-002
          65 -5.548347301819290E-002
          66  6.072403322871728E-002
          67  8.219515942532529E-004
          68  2.485074764427574E-002
          69  1.959687929731751E-002
          70 -2.720121947777222E-003
          71  4.826578623588652E-002
          72  3.568624849612191E-002
          73  2.701422412207343E-002
          74  1.336498295206482E-002
          75  9.174413601066135E-003
          76  1.589199748509053E-004
          77  6.512006854109363E-005
          78  3.516815101115461E-004
          79  1.517844235029076E-002
Sym=     6a
Ene=  -0.788302731058024     
Spin= Alpha
Occup=     2.00000000
           1  6.508867840236233E-002
           2  1.556548355234359E-002
           3 -1.129022330310654E-002
           4  2.000181969776799E-002
           5  4.908003554399943E-002
           6  1.697031941645923E-002
           7  3.259726318449052E-002
           8 -1.335530746190403E-002
           9 -1.035273500405652E-002
          10  3.253585521816257E-002
          11  6.557941542696652E-002
          12  1.910398526350444E-002
          13 -1.226142077282202E-002
          14  1.323801104129792E-003
          15  0.224538857211340     
          16  9.218551881675506E-002
          17 -5.394349865418981E-002
          18 -0.170692395821799     
          19 -6.782139580906318E-003
          20 -3.802969602214035E-002
          21  0.344443381959812     
          22 -8.128335961653779E-002
          23  9.636861687526524E-003
          24  5.481481489466518E-002
          25 -2.256199337871759E-002
          26 -1.649785607210173E-002