38
 energy: -50.226240338182 gnorm: 0.000564620305 xtb: 6.7.1 (edcfbbe)
C           -2.97301968466465       -0.89254331627587        0.90728881477487
C           -2.61992745045027        0.20194725423048       -0.10291384285537
C           -3.44188103224326       -0.01460214048928       -1.37925670995287
C           -2.96774750606757        1.57106522791188        0.48776927891459
C           -1.11876942534032        0.18993299796897       -0.49160644234709
N           -0.61467002420466       -1.07376716521151       -1.04507771085447
C           -0.16139601228328        0.51548216965326        0.68455289246753
N            1.17646715475289        0.03833954705566        0.27041737718706
C            1.96926195760436       -0.59311634181855        1.34203194329629
C            3.20471454818818       -1.27100939644944        0.76298446415396
C            4.04004023777771       -0.25371974770149       -0.01440690620522
F            4.54973092418432        0.66600978147705        0.85333668276380
F            5.10256061472943       -0.85998811917510       -0.58736046558017
C            3.20266338742547        0.46356999132214       -1.07322680872348
C            1.96930266573898        1.07451109329392       -0.42166115193235
H           -4.03492741779209       -0.83715807006846        1.12831770130248
H           -2.77965250473792       -1.89015800695903        0.51722669332176
H           -2.44048385694790       -0.77151341295871        1.84737931193588
H           -3.22089310523219        0.75151587145458       -2.11894442423559
H           -3.24981242470516       -0.99098223116456       -1.81898925336574
H           -4.50155553977989        0.03871187039161       -1.14927996872357
H           -2.64933186886386        2.37362852314144       -0.17296526112162
H           -2.50829463886932        1.71362299876995        1.46194160049172
H           -4.04321330191013        1.65110688356092        0.61435303618790
H           -0.98075695080920        0.95368933787693       -1.26514403582398
H           -1.02260882765990       -1.86832307091983       -0.56120114358856
H           -0.82563230545690       -1.16827659212654       -2.03069108237867
H           -0.46793820711695       -0.03278813519077        1.57475254073259
H           -0.14723619586150        1.57909357073028        0.91281868676976
H            0.81632398784619       -0.70997479439987       -0.45632542896981
H            1.35288565328400       -1.33288550960729        1.85498647477244
H            2.27044433854691        0.17456814213897        2.06094547757043
H            3.81294036303788       -1.68362949490707        1.56930722164506
H            2.93657586711402       -2.08439007952961        0.08703941613045
H            2.93495894756105       -0.25601050025560       -1.84825984150666
H            3.80825056011189        1.24813718029943       -1.52943117749519
H            2.27516381276064        1.82902711734098        0.30926004268168
H            1.34746326033467        1.55087656658862       -1.17996800144013
