28
 energy: -47.993770177567 gnorm: 0.000407192540 xtb: 6.7.1 (edcfbbe)
N           -0.25500787583991        2.03778605673130       -0.74306326169929
C           -0.66608206882565        0.60286493774456       -0.63954771830617
C           -2.17696100365966        0.56914435744033       -0.39211873049988
C           -2.69249360701283       -0.84855450403256       -0.16872156742523
C           -1.97308166583390       -1.46231978070198        1.02317860342961
C           -0.47319263732731       -1.49701703635801        0.75396272214491
C            0.10831277199627       -0.10123058145916        0.49029909940069
N            1.53209773176236       -0.31499066634813        0.18751618863870
C            2.45715887690763        0.58824883075553       -0.10567443837392
O            2.26531873555947        1.77097752940010       -0.35764437088036
C            3.91077377924600        0.04573065352810       -0.17336929160419
F            4.33990322480397        0.06341919447247       -1.43259795032410
F            4.72066614272206        0.78116002693591        0.57104388601646
F            3.97809759569012       -1.22093589585961        0.26062109673499
H           -0.70873101316797        2.59129802827673       -0.00940128684324
H            0.82683900036572        2.10846582989986       -0.60647537163212
H           -0.51376872213728        2.43677573488211       -1.64883955498487
H           -0.42583187740741        0.11298641494951       -1.58792611712446
H           -2.68938702188267        1.01872970024702       -1.24375145193701
H           -2.40574054697718        1.16179838097971        0.49732195641069
H           -3.76525638371412       -0.81553442284889        0.01408717418226
H           -2.52340066165550       -1.45429501297865       -1.05955908881058
H           -2.17987288127050       -0.88254545812803        1.92379213925218
H           -2.32698383476244       -2.47762159157509        1.19311899067053
H           -0.28750216570241       -2.12262651459009       -0.12174809879755
H            0.04202463955050       -1.93796624007324        1.60805390179275
H            0.03562529078831        0.50913828170720        1.40045726413849
H            1.84647617778452       -1.26288625299699        0.36698527643065
