32
 energy: -43.854992260305 gnorm: 0.000397425510 xtb: 6.7.1 (edcfbbe)
C           -3.03910813657534        0.00425436044496       -0.89533587701582
C           -1.90160191483211        0.45126000735206        0.02994741613820
C           -1.86317454605370        1.98110496824550        0.07596632384370
C           -2.15075708759024       -0.09872043823407        1.43694316373746
C           -0.56719651495971       -0.05473723779477       -0.56149887024484
N           -0.46226437883684       -1.54536282567782       -0.52581665988948
C            0.72240899309827        0.42120407072619        0.14142892740589
N            1.79486166331529       -0.45912218179949       -0.29932488023959
C            3.01157732189668       -0.58372980597917        0.52890636563788
C            3.86360864458909       -0.47290869297646       -0.74207639849350
F            4.84750490334858        0.43875692248403       -0.72436559376532
F            4.40704006620658       -1.63687671074104       -1.14926617477065
C            2.58382112933744       -0.08150938284182       -1.49091408737799
H           -3.13367250098662       -1.07889781455624       -0.93601833708061
H           -2.89375100674252        0.38263503403061       -1.90406972174422
H           -3.98291236945558        0.39765077576899       -0.52998277928708
H           -1.58779832417277        2.39282429342815       -0.89134053105369
H           -2.84497781806290        2.36569362019949        0.33421725299611
H           -1.15988800805771        2.33637666778765        0.82302344217423
H           -1.32576354838822        0.11083508970580        2.11217588307564
H           -3.03216430774964        0.38383159317325        1.84941432348915
H           -2.35461157273874       -1.16921351648426        1.43898134969253
H           -0.51496684855614        0.24996282827736       -1.61114553807170
H           -0.89431480813458       -2.00846098144676       -1.32599678503522
H           -0.87387499669312       -1.90132977447325        0.34411269848694
H            0.62773232466235        0.31651501497912        1.22363811582888
H            0.91730434390383        1.47189608859032       -0.08995515867364
H            0.61067900694018       -1.64110626434450       -0.50691622797670
H            3.08483728979949       -1.53256437894628        1.06030327782038
H            3.18581317552001        0.25035772073640        1.21067291288387
H            2.55953098311657        0.98409591445779       -1.72883333431797
H            2.36607884285070       -0.67471496409526       -2.37853435003078
