[Molden Format]
[Title]
[Atoms] AU
N      1     7 -0.48189504495864E+00  0.38508575477924E+01 -0.14041860578788E+01
C      2     6 -0.12587126866011E+01  0.11392496224736E+01 -0.12085700312246E+01
C      3     6 -0.41138600808956E+01  0.10755269609353E+01 -0.74099700897863E+00
C      4     6 -0.50880755095457E+01 -0.16035356144347E+01 -0.31883755375037E+00
C      5     6 -0.37285839699359E+01 -0.27633838921418E+01  0.19335273370536E+01
C      6     6 -0.89420448873546E+00 -0.28289522026076E+01  0.14247830530272E+01
C      7     6  0.20468147487141E+00 -0.19129807439389E+00  0.92653101701536E+00
N      8     7  0.28952451091831E+01 -0.59524609120966E+00  0.35435424045981E+00
C      9     6  0.46433573220354E+01  0.11116291832562E+01 -0.19969574689979E+00
O     10     8  0.42808319951789E+01  0.33466625034231E+01 -0.67584991097606E+00
C     11     6  0.73902913781218E+01  0.86418410668016E-01 -0.32762047955138E+00
F     12     9  0.82012285022366E+01  0.11984490859701E+00 -0.27072177728051E+01
F     13     9  0.89207661355131E+01  0.14761785104100E+01  0.10791165497101E+01
F     14     9  0.75175149528654E+01 -0.23072344588928E+01  0.49250249512734E+00
H     15     1 -0.13393075109122E+01  0.48968435807120E+01 -0.17765857352721E-01
H     16     1  0.15624992598462E+01  0.39844229616313E+01 -0.11460723537121E+01
H     17     1 -0.97088217623568E+00  0.46048387660479E+01 -0.31158551823624E+01
H     18     1 -0.80470562343295E+00  0.21351338005729E+00 -0.30007454674972E+01
H     19     1 -0.50822049144668E+01  0.19251201284835E+01 -0.23503496112600E+01
H     20     1 -0.45461907606814E+01  0.21954807520791E+01  0.93980229337663E+00
H     21     1 -0.71153033541985E+01 -0.15411367043848E+01  0.26620901074295E-01
H     22     1 -0.47685361532149E+01 -0.27482192789310E+01 -0.20022764907044E+01
H     23     1 -0.41193627320885E+01 -0.16677692083897E+01  0.36354402638843E+01
H     24     1 -0.43973621441200E+01 -0.46820262485231E+01  0.22546681264509E+01
H     25     1 -0.54330035341280E+00 -0.40111827774329E+01 -0.23007056292060E+00
H     26     1  0.79415059236337E-01 -0.36622254324988E+01  0.30387814680156E+01
H     27     1  0.67322042699869E-01  0.96213191198646E+00  0.26464806784570E+01
H     28     1  0.34893342716487E+01 -0.23865091447124E+01  0.69350166422205E+00
[GTO]
           1 0
 s           4   1.00000000000000     
   63.5940244669410      -0.192343884147216     
   10.9514172315237      -0.234781079249537     
  0.879993102573770       0.375937539017009     
  0.335387152965211       0.149828892718628     
 p           4   1.00000000000000     
   7.29650404814951       0.976586663156674     
   1.89187454507126       0.903722267303458     
  0.666944321108241       0.474049584615364     
  0.265522026741309       7.151606771501186E-002
 
           2 0
 s           4   1.00000000000000     
   51.0493630955799      -0.163120632101274     
   8.79112274068875      -0.199110245810007     
  0.706404222589298       0.318820477536558     
  0.269228134134116       0.127065041842404     
 p           4   1.00000000000000     
   5.82636561408000       0.737164515452096     
   1.51068960187200       0.682163716148503     
  0.532564832880000       0.357830539292537     
  0.212023236906000       5.398303027584788E-002
 
           3 0
 s           4   1.00000000000000     
   51.0493630955799      -0.163120632101274     
   8.79112274068875      -0.199110245810007     
  0.706404222589298       0.318820477536558     
  0.269228134134116       0.127065041842404     
 p           4   1.00000000000000     
   5.82636561408000       0.737164515452096     
   1.51068960187200       0.682163716148503     
  0.532564832880000       0.357830539292537     
  0.212023236906000       5.398303027584788E-002
 
           4 0
 s           4   1.00000000000000     
   51.0493630955799      -0.163120632101274     
   8.79112274068875      -0.199110245810007     
  0.706404222589298       0.318820477536558     
  0.269228134134116       0.127065041842404     
 p           4   1.00000000000000     
   5.82636561408000       0.737164515452096     
   1.51068960187200       0.682163716148503     
  0.532564832880000       0.357830539292537     
  0.212023236906000       5.398303027584788E-002
 
           5 0
 s           4   1.00000000000000     
   51.0493630955799      -0.163120632101274     
   8.79112274068875      -0.199110245810007     
  0.706404222589298       0.318820477536558     
  0.269228134134116       0.127065041842404     
 p           4   1.00000000000000     
   5.82636561408000       0.737164515452096     
   1.51068960187200       0.682163716148503     
  0.532564832880000       0.357830539292537     
  0.212023236906000       5.398303027584788E-002
 
           6 0
 s           4   1.00000000000000     
   51.0493630955799      -0.163120632101274     
   8.79112274068875      -0.199110245810007     
  0.706404222589298       0.318820477536558     
  0.269228134134116       0.127065041842404     
 p           4   1.00000000000000     
   5.82636561408000       0.737164515452096     
   1.51068960187200       0.682163716148503     
  0.532564832880000       0.357830539292537     
  0.212023236906000       5.398303027584788E-002
 
           7 0
 s           4   1.00000000000000     
   51.0493630955799      -0.163120632101274     
   8.79112274068875      -0.199110245810007     
  0.706404222589298       0.318820477536558     
  0.269228134134116       0.127065041842404     
 p           4   1.00000000000000     
   5.82636561408000       0.737164515452096     
   1.51068960187200       0.682163716148503     
  0.532564832880000       0.357830539292537     
  0.212023236906000       5.398303027584788E-002
 
           8 0
 s           4   1.00000000000000     
   63.5940244669410      -0.192343884147216     
   10.9514172315237      -0.234781079249537     
  0.879993102573770       0.375937539017009     
  0.335387152965211       0.149828892718628     
 p           4   1.00000000000000     
   7.29650404814951       0.976586663156674     
   1.89187454507126       0.903722267303458     
  0.666944321108241       0.474049584615364     
  0.265522026741309       7.151606771501186E-002
 
           9 0
 s           4   1.00000000000000     
   51.0493630955799      -0.163120632101274     
   8.79112274068875      -0.199110245810007     
  0.706404222589298       0.318820477536558     
  0.269228134134116       0.127065041842404     
 p           4   1.00000000000000     
   5.82636561408000       0.737164515452096     
   1.51068960187200       0.682163716148503     
  0.532564832880000       0.357830539292537     
  0.212023236906000       5.398303027584788E-002
 
          10 0
 s           4   1.00000000000000     
   69.1379619061966      -0.204787563700778     
   11.9061291327073      -0.249970231368273     
  0.956708277443407       0.400258802406396     
  0.364625204960737       0.159522066676936     
 p           4   1.00000000000000     
   8.21241932577816        1.13215567991868     
   2.12935769970981        1.04768407822548     
  0.750664482023609       0.549565082171590     
  0.298852465432831       8.290848659276662E-002
 
          11 0
 s           4   1.00000000000000     
   51.0493630955799      -0.163120632101274     
   8.79112274068875      -0.199110245810007     
  0.706404222589298       0.318820477536558     
  0.269228134134116       0.127065041842404     
 p           4   1.00000000000000     
   5.82636561408000       0.737164515452096     
   1.51068960187200       0.682163716148503     
  0.532564832880000       0.357830539292537     
  0.212023236906000       5.398303027584788E-002
 
          12 0
 s           4   1.00000000000000     
   67.8191594740697      -0.201850789245403     
   11.6790204412661      -0.246385510808000     
  0.938459125048083       0.394518855091218     
  0.357670001280168       0.157234426148285     
 p           4   1.00000000000000     
   9.58240403549692        1.37296780219284     
   2.48457427772447        1.27052889614703     
  0.875889317934415       0.666458841672068     
  0.348706630431394       0.100543312761176     
 
          13 0
 s           4   1.00000000000000     
   67.8191594740697      -0.201850789245403     
   11.6790204412661      -0.246385510808000     
  0.938459125048083       0.394518855091218     
  0.357670001280168       0.157234426148285     
 p           4   1.00000000000000     
   9.58240403549692        1.37296780219284     
   2.48457427772447        1.27052889614703     
  0.875889317934415       0.666458841672068     
  0.348706630431394       0.100543312761176     
 
          14 0
 s           4   1.00000000000000     
   67.8191594740697      -0.201850789245403     
   11.6790204412661      -0.246385510808000     
  0.938459125048083       0.394518855091218     
  0.357670001280168       0.157234426148285     
 p           4   1.00000000000000     
   9.58240403549692        1.37296780219284     
   2.48457427772447        1.27052889614703     
  0.875889317934415       0.666458841672068     
  0.348706630431394       0.100543312761176     
 
          15 0
 s           3   1.00000000000000     
   3.37022769753360       0.273591105889083     
  0.613891182214980       0.264605406538605     
  0.166142911484160       8.246594753408230E-002
 
          16 0
 s           3   1.00000000000000     
   3.37022769753360       0.273591105889083     
  0.613891182214980       0.264605406538605     
  0.166142911484160       8.246594753408230E-002
 
          17 0
 s           3   1.00000000000000     
   3.37022769753360       0.273591105889083     
  0.613891182214980       0.264605406538605     
  0.166142911484160       8.246594753408230E-002
 
          18 0
 s           3   1.00000000000000     
   3.37022769753360       0.273591105889083     
  0.613891182214980       0.264605406538605     
  0.166142911484160       8.246594753408230E-002
 
          19 0
 s           3   1.00000000000000     
   3.37022769753360       0.273591105889083     
  0.613891182214980       0.264605406538605     
  0.166142911484160       8.246594753408230E-002
 
          20 0
 s           3   1.00000000000000     
   3.37022769753360       0.273591105889083     
  0.613891182214980       0.264605406538605     
  0.166142911484160       8.246594753408230E-002
 
          21 0
 s           3   1.00000000000000     
   3.37022769753360       0.273591105889083     
  0.613891182214980       0.264605406538605     
  0.166142911484160       8.246594753408230E-002
 
          22 0
 s           3   1.00000000000000     
   3.37022769753360       0.273591105889083     
  0.613891182214980       0.264605406538605     
  0.166142911484160       8.246594753408230E-002
 
          23 0
 s           3   1.00000000000000     
   3.37022769753360       0.273591105889083     
  0.613891182214980       0.264605406538605     
  0.166142911484160       8.246594753408230E-002
 
          24 0
 s           3   1.00000000000000     
   3.37022769753360       0.273591105889083     
  0.613891182214980       0.264605406538605     
  0.166142911484160       8.246594753408230E-002
 
          25 0
 s           3   1.00000000000000     
   3.37022769753360       0.273591105889083     
  0.613891182214980       0.264605406538605     
  0.166142911484160       8.246594753408230E-002
 
          26 0
 s           3   1.00000000000000     
   3.37022769753360       0.273591105889083     
  0.613891182214980       0.264605406538605     
  0.166142911484160       8.246594753408230E-002
 
          27 0
 s           3   1.00000000000000     
   3.37022769753360       0.273591105889083     
  0.613891182214980       0.264605406538605     
  0.166142911484160       8.246594753408230E-002
 
          28 0
 s           3   1.00000000000000     
   3.37022769753360       0.273591105889083     
  0.613891182214980       0.264605406538605     
  0.166142911484160       8.246594753408230E-002
 
[MO]
Sym=     1a
Ene=   -1.01410925532714     
Spin= Alpha
Occup=     2.00000000
           1  1.545129156124015E-004
           2  2.646151596786565E-004
           3 -1.652664160671427E-004
           4  8.185757550861236E-005
           5  2.781446537836514E-004
           6  2.061152418299774E-004
           7 -4.110223506681028E-005
           8  9.680020630134322E-005
           9  6.943877563472830E-006
          10  1.769760997555552E-005
          11 -2.057326115129716E-006
          12  8.491742579512799E-007
          13  4.957223340139318E-007
          14  2.175672813969307E-006
          15  1.302686091525673E-006
          16  3.163921785424726E-007
          17  1.734659532417516E-006
          18  7.489796988039407E-006
          19  3.555077131845994E-006
          20 -1.700801665615570E-006
          21  1.358969626539957E-004
          22  1.242509867934436E-004
          23  1.022848831588813E-004
          24 -3.836557001751822E-005
          25  1.333503170567227E-003
          26  5.349985951486254E-004
          27  1.659985611713824E-005
          28 -2.019789699609455E-004
          29 -1.771282654758208E-003
          30 -1.054538671568044E-002
          31  2.383804873028928E-003
          32  5.150196888907523E-004
          33 -2.179123882680397E-002
          34 -3.198410148138289E-002
          35  1.930272028659973E-002
          36  7.338994542715879E-005
          37  4.722691522288292E-003
          38 -4.266849178778488E-003
          39  9.250762714398195E-004
          40  1.642698380057834E-004
          41 -0.277916379615795     
          42 -6.587070600499745E-002
          43  0.123698974214484     
          44 -1.901555494095418E-002
          45 -0.332942801988282     
          46  4.713068511390652E-003
          47  7.827759128074470E-003
          48 -3.880758100923682E-003
          49 -0.287898276252533     
          50  3.745116704411990E-003
          51  9.227482254349153E-003
          52 -4.124638532592143E-004
          53 -0.680265482555755     
          54  1.853462866261820E-002
          55  1.109448998886340E-002
          56 -3.850927320349602E-003
          57  2.447781256632900E-006
          58 -5.377100859420773E-005
          59  4.115654859021893E-006
          60 -8.275310053968178E-006
          61  2.307533904251977E-006
          62 -2.346169679973526E-007
          63  7.287460359583735E-007
          64 -1.183312632735679E-006
          65 -9.715053659641177E-007
          66  1.963977167458028E-008
          67  9.130223575759521E-005
          68  1.022593867214740E-004
          69 -4.445950879219601E-006
          70 -6.842127784278726E-003
Sym=     2a
Ene=   -1.00168058756568     
Spin= Alpha
Occup=     2.00000000
           1  1.124601657132130E-004
           2  2.205622375415517E-004
           3  1.735091682218507E-006
           4  4.499390685185739E-005
           5 -4.425628766390880E-005
           6 -2.314172902316510E-005
           7  4.717029846086187E-005
           8 -2.800399705126014E-005
           9 -4.101543420016976E-006
          10 -4.845496904557344E-006
          11 -1.308618730047486E-006
          12  1.973960601053339E-007
          13 -1.015803053452307E-008
          14  1.302990588127877E-007
          15 -4.409566850518728E-007
          16  2.583129968925962E-008
          17  1.271012998860264E-006
          18 -7.746920560689650E-007
          19 -1.407856257030336E-006
          20  3.521968195428302E-007
          21 -6.065335808474161E-005
          22 -6.776273735857652E-005
          23 -4.861455908362349E-005
          24  2.331756073642993E-005
          25 -2.970714967189177E-004
          26 -5.961589988610976E-005
          27  8.158389208639403E-005
          28  8.732266055443789E-005
          29  4.916013005865975E-003
          30  6.785812798834147E-003
          31 -1.092720794123514E-003
          32  5.204021775853742E-004
          33 -9.991940311942773E-003
          34 -1.959513390341384E-002
          35 -1.205757760822770E-002
          36  1.118607826550877E-002
          37 -6.183778342180895E-003
          38 -7.985343531115123E-003
          39  6.197080563063112E-003
          40  6.142019601179604E-004
          41 -0.108352806214465     
          42 -0.110253306100399     
          43 -0.198995355225161     
          44  0.130655883323790     
          45 -0.561081507038629     
          46  3.453358112460664E-003
          47 -1.111204896704795E-002
          48  1.123024098141060E-002
          49 -0.402520023203954     
          50 -9.041069885717903E-004
          51 -1.231813892553315E-002
          52  6.121148969848294E-003
          53  0.500793377107365     
          54 -2.289019639265815E-002
          55 -2.341634797116315E-002
          56  1.317479016459844E-002
          57  4.422442220509397E-006
          58  6.879287361324963E-004
          59 -8.111088571117141E-007
          60 -3.635848885425935E-005
          61 -6.113132210374549E-007
          62  7.187199920786522E-007
          63 -3.195903801702324E-008
          64  1.925183966400675E-006
          65  2.791618767288261E-006
          66  1.833364622594303E-006
          67 -1.012074821801786E-004
          68 -1.027416367103327E-004
          69 -1.692088175298589E-004
          70  5.795424962423273E-003
Sym=     3a
Ene=  -0.998309622808627     
Spin= Alpha
Occup=     2.00000000
           1 -7.649937622197332E-005
           2 -1.412341563323168E-004
           3  4.856668061522631E-005
           4  5.917726380808875E-006
           5 -4.948531266010991E-005
           6 -5.514451699054139E-005
           7 -8.235908200667706E-006
           8  1.531849827686704E-005
           9  9.497914340178712E-007
          10 -1.235470146933032E-006
          11  7.593536219448458E-007
          12  5.930384859085313E-007
          13  9.607447547816036E-008
          14 -3.572643076695797E-008
          15 -9.303072155098812E-008
          16  1.370052736534499E-007
          17  5.709734180799241E-007
          18  8.582488333702545E-007
          19  3.494321456490946E-007
          20 -9.693219878515165E-008
          21  1.953648404227911E-005
          22  1.356467047613506E-005
          23  1.346222142911912E-005
          24  3.743505095558679E-006
          25  9.998246607456197E-005
          26  3.956215510093390E-005
          27 -8.097062707702009E-006
          28  1.384278215807847E-004
          29 -1.691595624549405E-003
          30 -1.485044691715336E-003
          31  3.680207418984978E-004
          32  3.149160880922895E-003
          33  1.036862354542561E-003
          34  7.357830659960971E-003
          35  8.661821188566371E-003
          36  1.977760658751250E-002
          37  1.224177412947780E-003
          38  3.181680244906082E-003
          39 -2.321694956320733E-004
          40  4.779335913102489E-003
          41  2.627303477655489E-002
          42  6.966147384620346E-002
          43  0.116975081128362     
          44  0.249274484094537     
          45 -0.525121670920053     
          46  1.360542903574630E-002
          47  9.111536658864071E-003
          48  2.063223445905195E-002
          49  0.671371103313446     
          50 -3.967523863256936E-003
          51  8.322680019400343E-003
          52  2.108676776506480E-002
          53 -3.894448554959252E-002
          54  6.049081897171674E-003
          55  8.914179426090895E-003
          56  1.684164218207872E-002
          57  8.884993130019602E-007
          58 -2.441117157675543E-004
          59 -3.878871323498923E-006
          60  1.807229209623369E-005
          61 -2.831553611195460E-007
          62 -1.363985682304170E-007
          63 -6.482033370195214E-008
          64 -2.877089340468935E-007
          65 -7.041608500211805E-007
          66 -1.773638983403936E-007
          67  1.354607433529457E-005
          68  6.782792201964624E-006
          69 -5.635120579263613E-006
          70 -4.936920363224267E-004
Sym=     4a
Ene=  -0.913582590293735     
Spin= Alpha
Occup=     2.00000000
           1  2.386312240317262E-002
           2  1.618261311896646E-002
           3 -1.244045600097385E-002
           4  5.111335989500229E-003
           5  1.683380232484141E-002
           6  1.257869582282667E-002
           7  5.273104384274752E-003
           8  3.163864982239107E-003
           9  3.098763333764318E-004
          10  1.489551884547029E-003
          11  3.647474079284873E-004
          12 -8.667177991951941E-006
          13 -2.744205162212755E-004
          14 -3.706458459545300E-005
          15  6.248933254078352E-006
          16 -3.538015694981393E-005
          17 -5.406196056918601E-004
          18 -2.968600693364668E-004
          19 -7.061650704513499E-005
          20  5.715042459880582E-005
          21 -2.946837363472883E-003
          22 -5.847035294943871E-004
          23  2.657128347223888E-004
          24 -1.524406824089483E-004
          25  2.268832175809994E-002
          26  2.264259688017015E-002
          27  1.684833444615736E-002
          28 -1.088903685268958E-002
          29  0.139998267744247     
          30  5.899406321485096E-002
          31  0.120912084962329     
          32 -3.468592528715063E-002
          33  0.429855904785186     
          34 -8.618866416254180E-002
          35  0.153924169733301     
          36 -3.462125837871315E-002
          37  0.531934180100942     
          38 -3.048366426164518E-002
          39 -0.198856891036252     
          40  3.618356847979394E-002
          41  6.480697174209162E-002
          42 -9.784661676022469E-002
          43  3.663436336757556E-002
          44  4.906337765076726E-003
          45 -2.688780853125630E-002
          46 -1.760834933879259E-002
          47  6.257485021036986E-003
          48  6.805206884066244E-003
          49 -2.565119300034316E-002
          50 -1.907515244340527E-002
          51  3.011685452518419E-003
          52 -2.654450252489578E-003
          53  2.837838584896487E-003
          54 -1.473545383964764E-002
          55  6.626570419831415E-003
          56  2.718527135155425E-004
          57  2.745089891369954E-003
          58  3.091510675473763E-002
          59  1.861047686734300E-003
          60  3.044052369170367E-003
          61  2.555120679641917E-005
          62  1.503269681375762E-004
          63  1.154074318735729E-005
          64  9.102486746869856E-006
          65  1.304937550012555E-005
          66  2.800615748089263E-005
          67 -5.344716462451608E-004
          68 -5.918748548562164E-004
          69  4.020843155592548E-003
          70  5.491019907105808E-003
Sym=     5a
Ene=  -0.874966941285152     
Spin= Alpha
Occup=     2.00000000
           1  0.486527631979830     
           2 -6.006559453195382E-002
           3 -0.173200723638105     
           4  2.787352829215275E-002
           5  0.354791192921483     
           6  5.017243394049015E-002
           7  0.135756259951442     
           8  2.146830261122910E-002
           9  8.059451563953639E-002
          10  7.027454519513623E-002
          11  2.076795446058209E-002
          12 -7.776511065656001E-003
          13  6.480735316990894E-003
          14  8.523127536778455E-003
          15  7.619275380188733E-003
          16 -8.739982653592339E-004
          17  4.269185816357880E-003
          18  4.007166608045081E-003
          19  4.165035576963965E-003
          20 -2.771161968918130E-003
          21  2.301775477686496E-002
          22  6.988282120142854E-003
          23  2.352526424757500E-002
          24 -9.032111058800151E-003
          25  0.166807837626715     
          26 -8.950722581638686E-003
          27  5.435614031846622E-002
          28 -6.226869213626898E-002
          29  6.916961985186205E-002
          30 -7.943694805832621E-002
          31  2.369334070968739E-002
          32 -1.481483945262496E-003
          33 -6.305215388316598E-002
          34 -5.719906240240614E-002
          35 -1.594074231370573E-002
          36  5.671735719108214E-003
          37 -2.814200690008309E-002
          38 -6.311472445411903E-002
          39  3.419674072913400E-002
          40 -1.013373335204947E-002
          41 -3.797184580303738E-002
          42  4.806539325135376E-002
          43 -1.845510814688510E-002
          44 -2.387644149926794E-003
          45  1.929137093308410E-002
          46  1.349410525270624E-002
          47 -4.592199966413858E-003
          48 -7.432417534395246E-003
          49  2.121361202028434E-002
          50  1.613235184838896E-002
          51 -7.047004681980570E-004
          52  3.774587012083755E-003
          53  1.358924852124844E-002
          54  1.212123200530518E-002
          55 -9.652305371899018E-003
          56  1.184430194803204E-003
          57  0.118487023013862     
          58  0.105763037966492     
          59  0.107919435255125     
          60  7.070511993826703E-002
          61  1.537629025083995E-002
          62  1.849734953691858E-002
          63  8.944269853980490E-005
          64  8.679092035939417E-004
          65  6.425539909721739E-004
          66  1.017920813903067E-004
          67  3.984330269474466E-003
          68  2.379392469765027E-003
          69  3.847994212083709E-002
          70  1.542559377686869E-003
Sym=     6a
Ene=  -0.866720655029563     
Spin= Alpha
Occup=     2.00000000
           1  5.713772313361451E-002
           2  1.437412084223723E-002
           3  1.492599649390093E-002
           4 -3.250389655417829E-003
           5 -1.923972009946646E-002
           6 -1.724261373055043E-002
           7  2.170228012510679E-002
           8 -1.445447233975073E-002
           9  4.030371440067477E-004
          10 -1.763549240730508E-003
          11  2.057144046408484E-003
          12 -8.553874461893482E-004
          13 -3.145079332828176E-004
          14 -7.371578732152562E-004
          15 -1.749157474404689E-004
          16  4.318227482584429E-005
          17  8.550093458381454E-005
          18 -1.429710883496237E-003
          19 -7.613750100412871E-004
          20  5.730798730746904E-004
          21 -1.597994682334547E-002
          22 -1.247321125037623E-002
          23 -1.344251251808657E-002
          24  4.779796363413242E-003
          25 -0.110705623410164     
          26 -7.549926438535585E-002
          27 -1.846009429261568E-003
          28  2.171469910996104E-002
          29 -0.442201342789364     
          30 -9.959615378693042E-002
          31 -0.103387203765853     
          32  2.664329815680461E-002
          33 -0.236086612996133     
          34  6.215629879015236E-002
          35  0.300156503477103     
          36 -7.589000067911229E-002
          37  0.430273650231216     
          38 -2.089491400172643E-002
          39  5.638916145758444E-002
          40 -2.207324667669435E-002
          41 -0.106841912782641     
          42  0.135941838598907     
          43 -2.776262147969576E-002
          44 -1.237275533088836E-002
          45  1.944284863439900E-002
          46  3.366976181604075E-002
          47 -4.766131063141707E-003
          48 -1.244147508703257E-002
          49  4.196284654343540E-003
          50  3.083896225615082E-002
          51 -2.502273708216152E-003
          52 -1.119086767445618E-003
          53  0.100912379404547     
          54  4.765485449274435E-002
          55 -5.301588761471179E-002
          56  1.104671231776985E-002
          57  1.615408075612912E-002
          58  4.647827446638103E-002
          59  1.811588304688032E-002
          60 -6.203532959211750E-003
          61  4.862014051363898E-004
          62  1.867282607604732E-004
          63  6.587296081685876E-007
          64 -1.342774160156875E-004
          65 -3.222144716647717E-005
          66  5.105507174019645E-005
          67 -3.073081213144270E-003
          68 -2.912197371612948E-003
          69 -2.006851367990109E-002
          70 -8.066669534021739E-002
Sym=     7a
Ene=  -0.849801909915876     
Spin= Alpha
Occup=     2.00000000
           1 -0.254345657495200     
           2  9.388906711692374E-002
           3 -1.437230220851839E-002
           4  3.131066751327002E-002
           5  1.139733375515914E-002
           6  5.937382537458616E-002
           7 -0.123802506374418     
           8  6.689281606928296E-002
           9 -1.876956846567826E-002
          10 -6.657281548347047E-003
          11 -2.230595025470949E-002
          12  1.072615524436164E-002
          13  7.567560276955211E-003
          14  6.116719097903602E-003
          15 -5.379698982628798E-004
          16  2.424428212865639E-003
          17  1.505597757026888E-002
          18  1.425096019259612E-002
          19  6.700643068111784E-003
          20 -5.289357918043740E-003
          21  9.717592763351460E-002
          22  3.628686700705076E-002
          23  6.074381377937096E-002
          24 -1.822289715486611E-002
          25  0.328592329900561     
          26  9.141497836708420E-002
          27 -2.743787230020208E-002
          28 -3.654100522840215E-002
          29  0.226250187828635     
          30 -0.249950372349418     
          31  3.641810958660709E-002
          32  3.828403773028022E-002
          33 -0.151679443373007     
          34 -0.203071816245740     
          35  7.950174307844650E-002
          36  1.148813132051575E-002
          37  0.138651932127803     
          38 -0.113558309978829     
          39  4.716633783276471E-002
          40  6.867247372269467E-004
          41 -0.186064852408792     
          42  0.194236833676570     
          43 -6.193959399046698E-002
          44 -1.176069958467977E-002
          45  8.022040206542240E-002
          46  6.995471731736104E-002
          47 -1.806924275548626E-002
          48 -4.679367499080746E-002
          49  7.498955469170075E-002
          50  7.988171096025320E-002
          51  4.323852365458103E-003
          52  2.012340490672321E-002