[Molden Format]
[Title]
[Atoms] AU
N      1     7 -0.76633337500624E+00 -0.83477671441559E+00  0.38207115805844E+01
C      2     6 -0.31411910171710E+01 -0.10650614203595E+01  0.24238965691284E+01
C      3     6 -0.47055426030224E+01 -0.34383402642068E+01  0.30207157020564E+01
C      4     6 -0.63354396044706E+01 -0.42392087075116E+01  0.75821668096783E+00
C      5     6 -0.70920733656604E+01 -0.19486243649992E+01 -0.81761652170499E+00
C      6     6 -0.47689687052753E+01 -0.75099974821749E+00 -0.20861912922761E+01
C      7     6 -0.24425949020433E+01 -0.10728480107934E+01 -0.40429992038484E+00
N      8     7 -0.38926304728910E+00  0.83424547944813E+00 -0.74909003296690E+00
C      9     6  0.14771663396096E+01  0.92155331366531E-01 -0.27084447446921E+01
C     10     6  0.29311999945174E+01 -0.22038435181621E+01 -0.18724799875553E+01
C     11     6  0.45703365582701E+01 -0.20067118342690E+01  0.17480324664984E+00
C     12     6  0.58857160705941E+01 -0.41038140365351E+01  0.10128427649935E+01
C     13     6  0.55776250651564E+01 -0.64114408356958E+01 -0.18781732762947E+00
C     14     6  0.39594521589424E+01 -0.66155109745591E+01 -0.22328672925540E+01
C     15     6  0.26329462808968E+01 -0.45197788282073E+01 -0.30695248307521E+01
C     16     6 -0.11853399665584E+01  0.35074484575353E+01 -0.10432963944675E+01
C     17     6  0.97717370782115E+00  0.52353626118136E+01 -0.36823255110164E+00
C     18     6  0.20878962398358E+01  0.67797255772473E+01 -0.21751349533928E+01
C     19     6  0.40838333767301E+01  0.83427304025180E+01 -0.15243097014017E+01
C     20     6  0.49897748139457E+01  0.83599680338303E+01  0.92953785296279E+00
C     21     6  0.38913903922845E+01  0.68195352724318E+01  0.27401257427926E+01
C     22     6  0.18915957486903E+01  0.52645972344544E+01  0.20970858705522E+01
H     23     1 -0.10727611834736E+01 -0.27330850065426E+00  0.56252437284626E+01
H     24     1  0.13587083296646E+00 -0.25293804519764E+01  0.39032404108479E+01
H     25     1 -0.42562327021372E+01  0.62626588337768E+00  0.28414703275504E+01
H     26     1 -0.59012404687808E+01 -0.30623141723500E+01  0.46558860960954E+01
H     27     1 -0.34305260598560E+01 -0.49811914707663E+01  0.35274097188121E+01
H     28     1 -0.80196609016151E+01 -0.52056142661454E+01  0.14381105982197E+01
H     29     1 -0.53052316345447E+01 -0.55691544523941E+01 -0.43342376780053E+00
H     30     1 -0.84451457022618E+01 -0.25030225538525E+01 -0.22653647937019E+01
H     31     1 -0.80247129609376E+01 -0.57347725631900E+00  0.40133350311713E+00
H     32     1 -0.44302939545188E+01 -0.16589531319625E+01 -0.39051719156199E+01
H     33     1 -0.51684314508466E+01  0.12346922316143E+01 -0.24420266423873E+01
H     34     1 -0.15559966357829E+01 -0.29006886707201E+01 -0.79745473738910E+00
H     35     1  0.47058506926591E+00  0.69698215703744E+00  0.10517103794456E+01
H     36     1  0.27693485125397E+01  0.16820684873678E+01 -0.29740292593373E+01
H     37     1  0.47382413831077E+00 -0.25684482490351E+00 -0.44777741971359E+01
H     38     1  0.48434905456145E+01 -0.20021762460293E+00  0.10911320691387E+01
H     39     1  0.71630752733170E+01 -0.39353289390274E+01  0.25924921749852E+01
H     40     1  0.66108027435035E+01 -0.80437703894116E+01  0.46137249217029E+00
H     41     1  0.37288591551108E+01 -0.84048590119834E+01 -0.31816545402299E+01
H     42     1  0.13841657948440E+01 -0.46836187609905E+01 -0.46764740349622E+01
H     43     1 -0.17844888345113E+01  0.38322270182786E+01 -0.29902464364734E+01
H     44     1 -0.27746110662945E+01  0.38537514409634E+01  0.22599789540883E+00
H     45     1  0.13810320677356E+01  0.67795077749285E+01 -0.40905616141509E+01
H     46     1  0.49282359333154E+01  0.95450709593630E+01 -0.29369009292749E+01
H     47     1  0.65428687898486E+01  0.95787650064079E+01  0.14356965294690E+01
H     48     1  0.45854701848692E+01  0.68389655369956E+01  0.46569910234685E+01
H     49     1  0.10223443535221E+01  0.40886388390073E+01  0.35243654614725E+01
[GTO]
           1 0
 s           4   1.00000000000000     
   63.5940244669410      -0.192343884147216     
   10.9514172315237      -0.234781079249537     
  0.879993102573770       0.375937539017009     
  0.335387152965211       0.149828892718628     
 p           4   1.00000000000000     
   7.29650404814951       0.976586663156674     
   1.89187454507126       0.903722267303458     
  0.666944321108241       0.474049584615364     
  0.265522026741309       7.151606771501186E-002
 
           2 0
 s           4   1.00000000000000     
   51.0493630955799      -0.163120632101274     
   8.79112274068875      -0.199110245810007     
  0.706404222589298       0.318820477536558     
  0.269228134134116       0.127065041842404     
 p           4   1.00000000000000     
   5.82636561408000       0.737164515452096     
   1.51068960187200       0.682163716148503     
  0.532564832880000       0.357830539292537     
  0.212023236906000       5.398303027584788E-002
 
           3 0
 s           4   1.00000000000000     
   51.0493630955799      -0.163120632101274     
   8.79112274068875      -0.199110245810007     
  0.706404222589298       0.318820477536558     
  0.269228134134116       0.127065041842404     
 p           4   1.00000000000000     
   5.82636561408000       0.737164515452096     
   1.51068960187200       0.682163716148503     
  0.532564832880000       0.357830539292537     
  0.212023236906000       5.398303027584788E-002
 
           4 0
 s           4   1.00000000000000     
   51.0493630955799      -0.163120632101274     
   8.79112274068875      -0.199110245810007     
  0.706404222589298       0.318820477536558     
  0.269228134134116       0.127065041842404     
 p           4   1.00000000000000     
   5.82636561408000       0.737164515452096     
   1.51068960187200       0.682163716148503     
  0.532564832880000       0.357830539292537     
  0.212023236906000       5.398303027584788E-002
 
           5 0
 s           4   1.00000000000000     
   51.0493630955799      -0.163120632101274     
   8.79112274068875      -0.199110245810007     
  0.706404222589298       0.318820477536558     
  0.269228134134116       0.127065041842404     
 p           4   1.00000000000000     
   5.82636561408000       0.737164515452096     
   1.51068960187200       0.682163716148503     
  0.532564832880000       0.357830539292537     
  0.212023236906000       5.398303027584788E-002
 
           6 0
 s           4   1.00000000000000     
   51.0493630955799      -0.163120632101274     
   8.79112274068875      -0.199110245810007     
  0.706404222589298       0.318820477536558     
  0.269228134134116       0.127065041842404     
 p           4   1.00000000000000     
   5.82636561408000       0.737164515452096     
   1.51068960187200       0.682163716148503     
  0.532564832880000       0.357830539292537     
  0.212023236906000       5.398303027584788E-002
 
           7 0
 s           4   1.00000000000000     
   51.0493630955799      -0.163120632101274     
   8.79112274068875      -0.199110245810007     
  0.706404222589298       0.318820477536558     
  0.269228134134116       0.127065041842404     
 p           4   1.00000000000000     
   5.82636561408000       0.737164515452096     
   1.51068960187200       0.682163716148503     
  0.532564832880000       0.357830539292537     
  0.212023236906000       5.398303027584788E-002
 
           8 0
 s           4   1.00000000000000     
   63.5940244669410      -0.192343884147216     
   10.9514172315237      -0.234781079249537     
  0.879993102573770       0.375937539017009     
  0.335387152965211       0.149828892718628     
 p           4   1.00000000000000     
   7.29650404814951       0.976586663156674     
   1.89187454507126       0.903722267303458     
  0.666944321108241       0.474049584615364     
  0.265522026741309       7.151606771501186E-002
 
           9 0
 s           4   1.00000000000000     
   51.0493630955799      -0.163120632101274     
   8.79112274068875      -0.199110245810007     
  0.706404222589298       0.318820477536558     
  0.269228134134116       0.127065041842404     
 p           4   1.00000000000000     
   5.82636561408000       0.737164515452096     
   1.51068960187200       0.682163716148503     
  0.532564832880000       0.357830539292537     
  0.212023236906000       5.398303027584788E-002
 
          10 0
 s           4   1.00000000000000     
   51.0493630955799      -0.163120632101274     
   8.79112274068875      -0.199110245810007     
  0.706404222589298       0.318820477536558     
  0.269228134134116       0.127065041842404     
 p           4   1.00000000000000     
   5.82636561408000       0.737164515452096     
   1.51068960187200       0.682163716148503     
  0.532564832880000       0.357830539292537     
  0.212023236906000       5.398303027584788E-002
 
          11 0
 s           4   1.00000000000000     
   51.0493630955799      -0.163120632101274     
   8.79112274068875      -0.199110245810007     
  0.706404222589298       0.318820477536558     
  0.269228134134116       0.127065041842404     
 p           4   1.00000000000000     
   5.82636561408000       0.737164515452096     
   1.51068960187200       0.682163716148503     
  0.532564832880000       0.357830539292537     
  0.212023236906000       5.398303027584788E-002
 
          12 0
 s           4   1.00000000000000     
   51.0493630955799      -0.163120632101274     
   8.79112274068875      -0.199110245810007     
  0.706404222589298       0.318820477536558     
  0.269228134134116       0.127065041842404     
 p           4   1.00000000000000     
   5.82636561408000       0.737164515452096     
   1.51068960187200       0.682163716148503     
  0.532564832880000       0.357830539292537     
  0.212023236906000       5.398303027584788E-002
 
          13 0
 s           4   1.00000000000000     
   51.0493630955799      -0.163120632101274     
   8.79112274068875      -0.199110245810007     
  0.706404222589298       0.318820477536558     
  0.269228134134116       0.127065041842404     
 p           4   1.00000000000000     
   5.82636561408000       0.737164515452096     
   1.51068960187200       0.682163716148503     
  0.532564832880000       0.357830539292537     
  0.212023236906000       5.398303027584788E-002
 
          14 0
 s           4   1.00000000000000     
   51.0493630955799      -0.163120632101274     
   8.79112274068875      -0.199110245810007     
  0.706404222589298       0.318820477536558     
  0.269228134134116       0.127065041842404     
 p           4   1.00000000000000     
   5.82636561408000       0.737164515452096     
   1.51068960187200       0.682163716148503     
  0.532564832880000       0.357830539292537     
  0.212023236906000       5.398303027584788E-002
 
          15 0
 s           4   1.00000000000000     
   51.0493630955799      -0.163120632101274     
   8.79112274068875      -0.199110245810007     
  0.706404222589298       0.318820477536558     
  0.269228134134116       0.127065041842404     
 p           4   1.00000000000000     
   5.82636561408000       0.737164515452096     
   1.51068960187200       0.682163716148503     
  0.532564832880000       0.357830539292537     
  0.212023236906000       5.398303027584788E-002
 
          16 0
 s           4   1.00000000000000     
   51.0493630955799      -0.163120632101274     
   8.79112274068875      -0.199110245810007     
  0.706404222589298       0.318820477536558     
  0.269228134134116       0.127065041842404     
 p           4   1.00000000000000     
   5.82636561408000       0.737164515452096     
   1.51068960187200       0.682163716148503     
  0.532564832880000       0.357830539292537     
  0.212023236906000       5.398303027584788E-002
 
          17 0
 s           4   1.00000000000000     
   51.0493630955799      -0.163120632101274     
   8.79112274068875      -0.199110245810007     
  0.706404222589298       0.318820477536558     
  0.269228134134116       0.127065041842404     
 p           4   1.00000000000000     
   5.82636561408000       0.737164515452096     
   1.51068960187200       0.682163716148503     
  0.532564832880000       0.357830539292537     
  0.212023236906000       5.398303027584788E-002
 
          18 0
 s           4   1.00000000000000     
   51.0493630955799      -0.163120632101274     
   8.79112274068875      -0.199110245810007     
  0.706404222589298       0.318820477536558     
  0.269228134134116       0.127065041842404     
 p           4   1.00000000000000     
   5.82636561408000       0.737164515452096     
   1.51068960187200       0.682163716148503     
  0.532564832880000       0.357830539292537     
  0.212023236906000       5.398303027584788E-002
 
          19 0
 s           4   1.00000000000000     
   51.0493630955799      -0.163120632101274     
   8.79112274068875      -0.199110245810007     
  0.706404222589298       0.318820477536558     
  0.269228134134116       0.127065041842404     
 p           4   1.00000000000000     
   5.82636561408000       0.737164515452096     
   1.51068960187200       0.682163716148503     
  0.532564832880000       0.357830539292537     
  0.212023236906000       5.398303027584788E-002
 
          20 0
 s           4   1.00000000000000     
   51.0493630955799      -0.163120632101274     
   8.79112274068875      -0.199110245810007     
  0.706404222589298       0.318820477536558     
  0.269228134134116       0.127065041842404     
 p           4   1.00000000000000     
   5.82636561408000       0.737164515452096     
   1.51068960187200       0.682163716148503     
  0.532564832880000       0.357830539292537     
  0.212023236906000       5.398303027584788E-002
 
          21 0
 s           4   1.00000000000000     
   51.0493630955799      -0.163120632101274     
   8.79112274068875      -0.199110245810007     
  0.706404222589298       0.318820477536558     
  0.269228134134116       0.127065041842404     
 p           4   1.00000000000000     
   5.82636561408000       0.737164515452096     
   1.51068960187200       0.682163716148503     
  0.532564832880000       0.357830539292537     
  0.212023236906000       5.398303027584788E-002
 
          22 0
 s           4   1.00000000000000     
   51.0493630955799      -0.163120632101274     
   8.79112274068875      -0.199110245810007     
  0.706404222589298       0.318820477536558     
  0.269228134134116       0.127065041842404     
 p           4   1.00000000000000     
   5.82636561408000       0.737164515452096     
   1.51068960187200       0.682163716148503     
  0.532564832880000       0.357830539292537     
  0.212023236906000       5.398303027584788E-002
 
          23 0
 s           3   1.00000000000000     
   3.37022769753360       0.273591105889083     
  0.613891182214980       0.264605406538605     
  0.166142911484160       8.246594753408230E-002
 
          24 0
 s           3   1.00000000000000     
   3.37022769753360       0.273591105889083     
  0.613891182214980       0.264605406538605     
  0.166142911484160       8.246594753408230E-002
 
          25 0
 s           3   1.00000000000000     
   3.37022769753360       0.273591105889083     
  0.613891182214980       0.264605406538605     
  0.166142911484160       8.246594753408230E-002
 
          26 0
 s           3   1.00000000000000     
   3.37022769753360       0.273591105889083     
  0.613891182214980       0.264605406538605     
  0.166142911484160       8.246594753408230E-002
 
          27 0
 s           3   1.00000000000000     
   3.37022769753360       0.273591105889083     
  0.613891182214980       0.264605406538605     
  0.166142911484160       8.246594753408230E-002
 
          28 0
 s           3   1.00000000000000     
   3.37022769753360       0.273591105889083     
  0.613891182214980       0.264605406538605     
  0.166142911484160       8.246594753408230E-002
 
          29 0
 s           3   1.00000000000000     
   3.37022769753360       0.273591105889083     
  0.613891182214980       0.264605406538605     
  0.166142911484160       8.246594753408230E-002
 
          30 0
 s           3   1.00000000000000     
   3.37022769753360       0.273591105889083     
  0.613891182214980       0.264605406538605     
  0.166142911484160       8.246594753408230E-002
 
          31 0
 s           3   1.00000000000000     
   3.37022769753360       0.273591105889083     
  0.613891182214980       0.264605406538605     
  0.166142911484160       8.246594753408230E-002
 
          32 0
 s           3   1.00000000000000     
   3.37022769753360       0.273591105889083     
  0.613891182214980       0.264605406538605     
  0.166142911484160       8.246594753408230E-002
 
          33 0
 s           3   1.00000000000000     
   3.37022769753360       0.273591105889083     
  0.613891182214980       0.264605406538605     
  0.166142911484160       8.246594753408230E-002
 
          34 0
 s           3   1.00000000000000     
   3.37022769753360       0.273591105889083     
  0.613891182214980       0.264605406538605     
  0.166142911484160       8.246594753408230E-002
 
          35 0
 s           3   1.00000000000000     
   3.37022769753360       0.273591105889083     
  0.613891182214980       0.264605406538605     
  0.166142911484160       8.246594753408230E-002
 
          36 0
 s           3   1.00000000000000     
   3.37022769753360       0.273591105889083     
  0.613891182214980       0.264605406538605     
  0.166142911484160       8.246594753408230E-002
 
          37 0
 s           3   1.00000000000000     
   3.37022769753360       0.273591105889083     
  0.613891182214980       0.264605406538605     
  0.166142911484160       8.246594753408230E-002
 
          38 0
 s           3   1.00000000000000     
   3.37022769753360       0.273591105889083     
  0.613891182214980       0.264605406538605     
  0.166142911484160       8.246594753408230E-002
 
          39 0
 s           3   1.00000000000000     
   3.37022769753360       0.273591105889083     
  0.613891182214980       0.264605406538605     
  0.166142911484160       8.246594753408230E-002
 
          40 0
 s           3   1.00000000000000     
   3.37022769753360       0.273591105889083     
  0.613891182214980       0.264605406538605     
  0.166142911484160       8.246594753408230E-002
 
          41 0
 s           3   1.00000000000000     
   3.37022769753360       0.273591105889083     
  0.613891182214980       0.264605406538605     
  0.166142911484160       8.246594753408230E-002
 
          42 0
 s           3   1.00000000000000     
   3.37022769753360       0.273591105889083     
  0.613891182214980       0.264605406538605     
  0.166142911484160       8.246594753408230E-002
 
          43 0
 s           3   1.00000000000000     
   3.37022769753360       0.273591105889083     
  0.613891182214980       0.264605406538605     
  0.166142911484160       8.246594753408230E-002
 
          44 0
 s           3   1.00000000000000     
   3.37022769753360       0.273591105889083     
  0.613891182214980       0.264605406538605     
  0.166142911484160       8.246594753408230E-002
 
          45 0
 s           3   1.00000000000000     
   3.37022769753360       0.273591105889083     
  0.613891182214980       0.264605406538605     
  0.166142911484160       8.246594753408230E-002
 
          46 0
 s           3   1.00000000000000     
   3.37022769753360       0.273591105889083     
  0.613891182214980       0.264605406538605     
  0.166142911484160       8.246594753408230E-002
 
          47 0
 s           3   1.00000000000000     
   3.37022769753360       0.273591105889083     
  0.613891182214980       0.264605406538605     
  0.166142911484160       8.246594753408230E-002
 
          48 0
 s           3   1.00000000000000     
   3.37022769753360       0.273591105889083     
  0.613891182214980       0.264605406538605     
  0.166142911484160       8.246594753408230E-002
 
          49 0
 s           3   1.00000000000000     
   3.37022769753360       0.273591105889083     
  0.613891182214980       0.264605406538605     
  0.166142911484160       8.246594753408230E-002
 
[MO]
Sym=     1a
Ene=  -0.833435596002173     
Spin= Alpha
Occup=     2.00000000
           1 -3.312237205591649E-002
           2  1.520715971827275E-002
           3 -4.870914912801247E-003
           4  3.628635190659296E-002
           5 -7.551665702863813E-002
           6 -3.233023726720768E-002
           7 -1.508152267922260E-002
           8  4.157767047094109E-002
           9 -6.042830499146193E-003
          10 -5.982678315050994E-003
          11 -6.568934260402883E-003
          12  4.649134235144728E-003
          13 -1.211193076361991E-003
          14 -2.021070029963473E-003
          15 -1.994583048422251E-003
          16  1.432571774794153E-004
          17 -2.851720482951760E-003
          18 -6.051363190523858E-003
          19 -2.122254013822533E-003
          20 -3.190168191257828E-004
          21 -4.505155108672663E-002
          22 -3.929936028622526E-002
          23 -7.563481134902929E-003
          24 -1.927944527616983E-002
          25 -0.231981816365802     
          26 -8.924626118243609E-002
          27 -9.244238227801792E-002
          28  1.142662477854148E-002
          29 -0.553835710054220     
          30  4.082470814347644E-002
          31  1.145732662371108E-002
          32  4.912761455309079E-002
          33 -0.195678591823773     
          34  9.134043777947105E-002
          35 -2.657872970047402E-002
          36 -8.874304686157809E-002
          37 -4.560192816411467E-002
          38  2.876374748740509E-002
          39 -2.798886172683928E-002
          40 -3.715996677764279E-003
          41 -1.108744181991865E-002
          42  1.021159229609737E-002
          43 -4.077311195153892E-003
          44  5.173137292279467E-003
          45  9.472247823675878E-005
          46  9.406902487158416E-004
          47 -7.345214048202642E-004
          48  4.191320440217656E-004
          49  3.485398243701081E-004
          50  1.140746610047948E-004
          51 -1.310587192586185E-004
          52 -2.144640259714731E-005
          53  5.050519016564848E-004
          54  3.558508737821072E-004
          55 -5.893306843281616E-004
          56 -1.304749278666341E-004
          57 -6.027195002410489E-003
          58  2.983022443431881E-003
          59 -7.641363155861717E-003
          60 -3.146033423517574E-003
          61 -0.194458876936447     
          62 -3.728735715388490E-002
          63  0.123118540723231     
          64 -8.807498516099464E-003
          65 -4.263373270557064E-002
          66  1.730970618074728E-002
          67  3.437459507534808E-002
          68  5.597904878987454E-003
          69 -4.692996105935356E-003
          70  3.431517276126308E-003
          71  6.443696261833961E-003
          72 -2.451892335067243E-003
          73  6.215440920479485E-004
          74  2.275066546536694E-004
          75  4.408064552276691E-004
          76 -4.525276225472785E-005
          77  3.839580004326626E-004
          78  3.681443383263876E-005
          79  1.104735659273450E-004
          80 -2.582801625644939E-006
          81  1.683537139448226E-004
          82  6.780290776973590E-004
          83  7.524546681886884E-004
          84  5.390716628416019E-004
          85 -1.071724288723655E-002
          86  5.460076156181076E-003
          87  6.531711264671712E-003
          88  8.074046589610253E-003
          89  1.991239019197331E-003
          90 -3.429758682725566E-003
          91 -1.570499532505280E-002
          92 -3.136105394335658E-004
          93 -1.090370758618632E-003
          94  3.756419802521081E-005
          95 -3.652491744243836E-004
          96  6.143108158032976E-005
          97 -5.874117212131426E-004
          98 -7.413432221171810E-003
          99 -1.312296310333442E-002
         100 -4.934821298230534E-002
         101 -0.126347898443611     
         102 -3.762178770543666E-002
         103 -3.922916550267174E-002
         104 -4.102992823271980E-003
         105 -2.056932854991124E-005
         106 -2.529504829640556E-006
         107 -1.259170317137563E-005
         108 -1.511797496552770E-003
         109 -3.862060100402586E-002
         110 -3.878680634285563E-002
         111 -1.200919422051017E-003
         112 -1.875413090037004E-005
         113 -5.820426286276841E-006
         114 -2.221577970167727E-005
         115 -4.357593781432800E-003
Sym=     2a
Ene=  -0.807900870371571     
Spin= Alpha
Occup=     2.00000000
           1 -0.121358183827650     
           2  7.102004090399391E-002
           3  7.040263189097194E-003
           4  8.057181714983148E-002
           5 -0.262404383103480     
           6 -6.352131542582970E-002
           7 -6.256702202558196E-003
           8  7.718053578432713E-002
           9 -6.244406356503469E-002
          10 -2.876214171348357E-002
          11 -3.558580891358100E-002
          12  2.310625334125632E-002
          13 -2.483677658193716E-002
          14 -1.433103380163657E-002
          15 -1.562292247841883E-002
          16 -1.012267259636184E-003
          17 -3.112946819968036E-002
          18 -2.604755362416969E-002
          19 -4.516995870657130E-003
          20 -3.696477867056325E-003
          21 -0.102781405064211     
          22 -5.226379750176199E-002
          23  7.387215376509109E-003
          24 -5.128657891185548E-002
          25 -0.363799489727601     
          26 -1.824227252198400E-002
          27 -3.223773930815111E-002
          28 -7.044131155972098E-002
          29  7.792497365583505E-002
          30  0.211049850762827     
          31  0.253033240088548     
          32 -0.165639699879687     
          33  0.177341211932663     
          34 -2.355036204302839E-002
          35  7.029009622631290E-002
          36  3.950703161570181E-002
          37  3.067804256007134E-002
          38 -7.889436339216797E-003
          39  2.770337522887954E-002
          40 -4.737900678244711E-003
          41  8.702794894594971E-003
          42 -5.258809019753509E-003
          43  4.728771201952263E-003
          44 -5.942310784919963E-003
          45 -6.426463991842932E-004
          46 -3.054797101372295E-004
          47  7.129121769593445E-004
          48 -3.531297236673653E-004
          49 -8.883430485326488E-004
          50  2.351640566152253E-004
          51 -1.237214898836408E-004
          52  1.209151960966792E-004
          53 -1.710976038926854E-003
          54  3.506691767932527E-004
          55 -2.880275486728924E-004
          56 -6.450886603470672E-005
          57  5.858264638085557E-005
          58  5.373664862132370E-004
          59  4.729220442440640E-003
          60 -1.642733924898553E-004
          61  0.209017233078338     
          62  8.832182583352764E-002
          63 -3.508702461458392E-002
          64 -1.709522186490552E-002
          65  0.111071041746819     
          66 -2.754735281069053E-002
          67 -5.025107102357927E-002
          68 -1.632638398466520E-002
          69  2.810387535179017E-002
          70 -1.170062209555323E-002
          71 -1.933700152776090E-002
          72  1.077111658824847E-002
          73  2.620919959498194E-003
          74 -2.959202776285152E-003
          75 -3.514370739641202E-003
          76  7.175507984297508E-004
          77  1.196359041234500E-003
          78 -1.372804462649594E-003
          79 -1.291118152955042E-003
          80 -4.910264962163696E-004
          81  2.845235539508483E-003
          82 -3.008996828022385E-003
          83 -2.340433451096412E-003
          84 -3.117417411964044E-003
          85  2.976816025332238E-002
          86 -1.077998970395985E-002
          87 -8.494124081673483E-003
          88 -2.217229041350079E-002
          89 -8.643076574187362E-003
          90 -2.267494772405712E-002
          91 -5.798741604741717E-002
          92 -7.720769755446224E-003
          93 -1.251094028006301E-002
          94 -1.391135583495646E-003
          95 -5.808925380310173E-003
          96 -2.231864427519163E-003
          97 -6.110742798060060E-003
          98 -1.743967763018531E-002
          99 -1.815702352099425E-002
         100 -9.334245997884183E-002
         101 -1.525718940359050E-002
         102  6.844833830478382E-002
         103  3.773204853166242E-002
         104  4.444961766402468E-003
         105 -6.626586368662575E-005
         106 -6.426708951490821E-005
         107 -1.442064444445982E-004
         108  2.979198818570530E-004
         109  5.554941898887535E-002
         110  2.526184948268721E-002
         111  6.486735040093672E-003
         112  1.333802046869925E-004
         113  3.901236936411641E-005
         114  1.579618660254177E-004
         115  6.271923196573649E-003
Sym=     3a
Ene=  -0.799937508152701     
Spin= Alpha
Occup=     2.00000000
           1 -3.238510691777275E-002
           2  2.335760895906005E-002
           3 -6.127024446046952E-003
           4  1.555590520095009E-002
           5 -7.209551371952913E-002
           6 -7.127648348387983E-003
           7 -1.739231093996179E-002
           8  9.682738382819396E-003
           9 -1.595235789559194E-002
          10 -5.516215148733335E-003
          11 -1.070840898399291E-002
          12  4.096900293863188E-003
          13 -5.929691357257734E-003
          14 -2.346808000480075E-003
          15 -4.411580023250864E-003
          16 -6.942481441409882E-004
          17 -1.086343946953526E-002
          18 -6.433532075024604E-003
          19 -3.091668496456459E-003
          20 -1.259536690750929E-003
          21 -2.337725066372357E-002
          22 -1.898929472521544E-004
          23 -1.095556727564638E-002
          24 -1.396172627260154E-002
          25  1.179704200576824E-003
          26  6.957836984115887E-002
          27 -5.197042896191089E-002
          28 -4.981285706844659E-002