[Molden Format]
[Title]
[Atoms] AU
C      1     6 -0.59576819679189E+01 -0.15503877265944E+00 -0.27356281057460E+01
C      2     6 -0.44805033367911E+01  0.14038144765217E+00 -0.25998833818881E+00
C      3     6 -0.51028317519814E+01 -0.20866253210339E+01  0.14779447135670E+01
C      4     6 -0.52759438253437E+01  0.26094658312674E+01  0.10217057445016E+01
C      5     6 -0.16283493549506E+01  0.28641576067323E+00 -0.91993174671216E+00
N      6     7 -0.55092053743402E+00 -0.19746534083547E+01 -0.21128524880194E+01
C      7     6  0.10063967434280E+00  0.81510602465273E+00  0.13842959986383E+01
N      8     7  0.26937221028516E+01  0.14428147452678E+00  0.58736808075085E+00
C      9     6  0.42699913041732E+01 -0.10622777476558E+01  0.25448356241801E+01
C     10     6  0.67649059280816E+01 -0.19237457986185E+01  0.13483706835210E+01
O     11     8  0.80470744756910E+01  0.12145803382514E+00  0.25446340036424E+00
C     12     6  0.65967319086086E+01  0.12730116726199E+01 -0.16420505846539E+01
C     13     6  0.40989128868923E+01  0.22645842283956E+01 -0.56238642662532E+00
H     14     1 -0.79728069644442E+01 -0.16090542832072E+00 -0.23500805155321E+01
H     15     1 -0.55626137990196E+01  0.14026715355549E+01 -0.40173621264493E+01
H     16     1 -0.55012364746442E+01 -0.19216740228245E+01 -0.36829468474394E+01
H     17     1 -0.71232798448502E+01 -0.21043237341885E+01  0.18390307485699E+01
H     18     1 -0.46259080191259E+01 -0.38953885314919E+01  0.62262535399799E+00
H     19     1 -0.41569871781708E+01 -0.19383831170046E+01  0.32959174745878E+01
H     20     1 -0.44652054792233E+01  0.27784560803853E+01  0.29006031277774E+01
H     21     1 -0.47102931030991E+01  0.42372606725583E+01 -0.97213329715449E-01
H     22     1 -0.73182860979969E+01  0.26583174719955E+01  0.12159541699480E+01
H     23     1 -0.13958075810443E+01  0.18428050446853E+01 -0.22665151324197E+01
H     24     1 -0.93961164149986E+00 -0.20477515029073E+01 -0.39836694321698E+01
H     25     1 -0.12511004268659E+01 -0.35696323190547E+01 -0.13061125871160E+01
H     26     1 -0.41917365669217E-02  0.27785040685106E+01  0.19856302842908E+01
H     27     1 -0.43426789872808E+00 -0.40097854176747E+00  0.29583634638008E+01
H     28     1  0.21655880883721E+01 -0.12089520157235E+01 -0.87854135952729E+00
H     29     1  0.32724699913114E+01 -0.26800341587579E+01  0.33400153109398E+01
H     30     1  0.46525813161388E+01  0.31252199047917E+00  0.40379934656446E+01
H     31     1  0.63859674009625E+01 -0.33926834221028E+01 -0.76156823796846E-01
H     32     1  0.80174604134716E+01 -0.26950327159335E+01  0.27913832704455E+01
H     33     1  0.77259247089838E+01  0.28328044176974E+01 -0.23757558615916E+01
H     34     1  0.62115076981923E+01 -0.70046448591850E-01 -0.31839250188524E+01
H     35     1  0.29656116122522E+01  0.31183483384609E+01 -0.20538782294011E+01
H     36     1  0.44887375093714E+01  0.36717329130496E+01  0.89849403842920E+00
[GTO]
           1 0
 s           4   1.00000000000000     
   51.0493630955799      -0.163120632101274     
   8.79112274068875      -0.199110245810007     
  0.706404222589298       0.318820477536558     
  0.269228134134116       0.127065041842404     
 p           4   1.00000000000000     
   5.82636561408000       0.737164515452096     
   1.51068960187200       0.682163716148503     
  0.532564832880000       0.357830539292537     
  0.212023236906000       5.398303027584788E-002
 
           2 0
 s           4   1.00000000000000     
   51.0493630955799      -0.163120632101274     
   8.79112274068875      -0.199110245810007     
  0.706404222589298       0.318820477536558     
  0.269228134134116       0.127065041842404     
 p           4   1.00000000000000     
   5.82636561408000       0.737164515452096     
   1.51068960187200       0.682163716148503     
  0.532564832880000       0.357830539292537     
  0.212023236906000       5.398303027584788E-002
 
           3 0
 s           4   1.00000000000000     
   51.0493630955799      -0.163120632101274     
   8.79112274068875      -0.199110245810007     
  0.706404222589298       0.318820477536558     
  0.269228134134116       0.127065041842404     
 p           4   1.00000000000000     
   5.82636561408000       0.737164515452096     
   1.51068960187200       0.682163716148503     
  0.532564832880000       0.357830539292537     
  0.212023236906000       5.398303027584788E-002
 
           4 0
 s           4   1.00000000000000     
   51.0493630955799      -0.163120632101274     
   8.79112274068875      -0.199110245810007     
  0.706404222589298       0.318820477536558     
  0.269228134134116       0.127065041842404     
 p           4   1.00000000000000     
   5.82636561408000       0.737164515452096     
   1.51068960187200       0.682163716148503     
  0.532564832880000       0.357830539292537     
  0.212023236906000       5.398303027584788E-002
 
           5 0
 s           4   1.00000000000000     
   51.0493630955799      -0.163120632101274     
   8.79112274068875      -0.199110245810007     
  0.706404222589298       0.318820477536558     
  0.269228134134116       0.127065041842404     
 p           4   1.00000000000000     
   5.82636561408000       0.737164515452096     
   1.51068960187200       0.682163716148503     
  0.532564832880000       0.357830539292537     
  0.212023236906000       5.398303027584788E-002
 
           6 0
 s           4   1.00000000000000     
   63.5940244669410      -0.192343884147216     
   10.9514172315237      -0.234781079249537     
  0.879993102573770       0.375937539017009     
  0.335387152965211       0.149828892718628     
 p           4   1.00000000000000     
   7.29650404814951       0.976586663156674     
   1.89187454507126       0.903722267303458     
  0.666944321108241       0.474049584615364     
  0.265522026741309       7.151606771501186E-002
 
           7 0
 s           4   1.00000000000000     
   51.0493630955799      -0.163120632101274     
   8.79112274068875      -0.199110245810007     
  0.706404222589298       0.318820477536558     
  0.269228134134116       0.127065041842404     
 p           4   1.00000000000000     
   5.82636561408000       0.737164515452096     
   1.51068960187200       0.682163716148503     
  0.532564832880000       0.357830539292537     
  0.212023236906000       5.398303027584788E-002
 
           8 0
 s           4   1.00000000000000     
   63.5940244669410      -0.192343884147216     
   10.9514172315237      -0.234781079249537     
  0.879993102573770       0.375937539017009     
  0.335387152965211       0.149828892718628     
 p           4   1.00000000000000     
   7.29650404814951       0.976586663156674     
   1.89187454507126       0.903722267303458     
  0.666944321108241       0.474049584615364     
  0.265522026741309       7.151606771501186E-002
 
           9 0
 s           4   1.00000000000000     
   51.0493630955799      -0.163120632101274     
   8.79112274068875      -0.199110245810007     
  0.706404222589298       0.318820477536558     
  0.269228134134116       0.127065041842404     
 p           4   1.00000000000000     
   5.82636561408000       0.737164515452096     
   1.51068960187200       0.682163716148503     
  0.532564832880000       0.357830539292537     
  0.212023236906000       5.398303027584788E-002
 
          10 0
 s           4   1.00000000000000     
   51.0493630955799      -0.163120632101274     
   8.79112274068875      -0.199110245810007     
  0.706404222589298       0.318820477536558     
  0.269228134134116       0.127065041842404     
 p           4   1.00000000000000     
   5.82636561408000       0.737164515452096     
   1.51068960187200       0.682163716148503     
  0.532564832880000       0.357830539292537     
  0.212023236906000       5.398303027584788E-002
 
          11 0
 s           4   1.00000000000000     
   69.1379619061966      -0.204787563700778     
   11.9061291327073      -0.249970231368273     
  0.956708277443407       0.400258802406396     
  0.364625204960737       0.159522066676936     
 p           4   1.00000000000000     
   8.21241932577816        1.13215567991868     
   2.12935769970981        1.04768407822548     
  0.750664482023609       0.549565082171590     
  0.298852465432831       8.290848659276662E-002
 
          12 0
 s           4   1.00000000000000     
   51.0493630955799      -0.163120632101274     
   8.79112274068875      -0.199110245810007     
  0.706404222589298       0.318820477536558     
  0.269228134134116       0.127065041842404     
 p           4   1.00000000000000     
   5.82636561408000       0.737164515452096     
   1.51068960187200       0.682163716148503     
  0.532564832880000       0.357830539292537     
  0.212023236906000       5.398303027584788E-002
 
          13 0
 s           4   1.00000000000000     
   51.0493630955799      -0.163120632101274     
   8.79112274068875      -0.199110245810007     
  0.706404222589298       0.318820477536558     
  0.269228134134116       0.127065041842404     
 p           4   1.00000000000000     
   5.82636561408000       0.737164515452096     
   1.51068960187200       0.682163716148503     
  0.532564832880000       0.357830539292537     
  0.212023236906000       5.398303027584788E-002
 
          14 0
 s           3   1.00000000000000     
   3.37022769753360       0.273591105889083     
  0.613891182214980       0.264605406538605     
  0.166142911484160       8.246594753408230E-002
 
          15 0
 s           3   1.00000000000000     
   3.37022769753360       0.273591105889083     
  0.613891182214980       0.264605406538605     
  0.166142911484160       8.246594753408230E-002
 
          16 0
 s           3   1.00000000000000     
   3.37022769753360       0.273591105889083     
  0.613891182214980       0.264605406538605     
  0.166142911484160       8.246594753408230E-002
 
          17 0
 s           3   1.00000000000000     
   3.37022769753360       0.273591105889083     
  0.613891182214980       0.264605406538605     
  0.166142911484160       8.246594753408230E-002
 
          18 0
 s           3   1.00000000000000     
   3.37022769753360       0.273591105889083     
  0.613891182214980       0.264605406538605     
  0.166142911484160       8.246594753408230E-002
 
          19 0
 s           3   1.00000000000000     
   3.37022769753360       0.273591105889083     
  0.613891182214980       0.264605406538605     
  0.166142911484160       8.246594753408230E-002
 
          20 0
 s           3   1.00000000000000     
   3.37022769753360       0.273591105889083     
  0.613891182214980       0.264605406538605     
  0.166142911484160       8.246594753408230E-002
 
          21 0
 s           3   1.00000000000000     
   3.37022769753360       0.273591105889083     
  0.613891182214980       0.264605406538605     
  0.166142911484160       8.246594753408230E-002
 
          22 0
 s           3   1.00000000000000     
   3.37022769753360       0.273591105889083     
  0.613891182214980       0.264605406538605     
  0.166142911484160       8.246594753408230E-002
 
          23 0
 s           3   1.00000000000000     
   3.37022769753360       0.273591105889083     
  0.613891182214980       0.264605406538605     
  0.166142911484160       8.246594753408230E-002
 
          24 0
 s           3   1.00000000000000     
   3.37022769753360       0.273591105889083     
  0.613891182214980       0.264605406538605     
  0.166142911484160       8.246594753408230E-002
 
          25 0
 s           3   1.00000000000000     
   3.37022769753360       0.273591105889083     
  0.613891182214980       0.264605406538605     
  0.166142911484160       8.246594753408230E-002
 
          26 0
 s           3   1.00000000000000     
   3.37022769753360       0.273591105889083     
  0.613891182214980       0.264605406538605     
  0.166142911484160       8.246594753408230E-002
 
          27 0
 s           3   1.00000000000000     
   3.37022769753360       0.273591105889083     
  0.613891182214980       0.264605406538605     
  0.166142911484160       8.246594753408230E-002
 
          28 0
 s           3   1.00000000000000     
   3.37022769753360       0.273591105889083     
  0.613891182214980       0.264605406538605     
  0.166142911484160       8.246594753408230E-002
 
          29 0
 s           3   1.00000000000000     
   3.37022769753360       0.273591105889083     
  0.613891182214980       0.264605406538605     
  0.166142911484160       8.246594753408230E-002
 
          30 0
 s           3   1.00000000000000     
   3.37022769753360       0.273591105889083     
  0.613891182214980       0.264605406538605     
  0.166142911484160       8.246594753408230E-002
 
          31 0
 s           3   1.00000000000000     
   3.37022769753360       0.273591105889083     
  0.613891182214980       0.264605406538605     
  0.166142911484160       8.246594753408230E-002
 
          32 0
 s           3   1.00000000000000     
   3.37022769753360       0.273591105889083     
  0.613891182214980       0.264605406538605     
  0.166142911484160       8.246594753408230E-002
 
          33 0
 s           3   1.00000000000000     
   3.37022769753360       0.273591105889083     
  0.613891182214980       0.264605406538605     
  0.166142911484160       8.246594753408230E-002
 
          34 0
 s           3   1.00000000000000     
   3.37022769753360       0.273591105889083     
  0.613891182214980       0.264605406538605     
  0.166142911484160       8.246594753408230E-002
 
          35 0
 s           3   1.00000000000000     
   3.37022769753360       0.273591105889083     
  0.613891182214980       0.264605406538605     
  0.166142911484160       8.246594753408230E-002
 
          36 0
 s           3   1.00000000000000     
   3.37022769753360       0.273591105889083     
  0.613891182214980       0.264605406538605     
  0.166142911484160       8.246594753408230E-002
 
[MO]
Sym=     1a
Ene=  -0.858456967921634     
Spin= Alpha
Occup=     2.00000000
           1 -5.208027726695284E-004
           2  1.136944696667786E-005
           3 -1.211032422552743E-005
           4 -6.869435733401462E-005
           5  4.330169350542655E-004
           6  3.410733730385766E-003
           7 -1.580453729265312E-004
           8  1.782937596792400E-004
           9  3.393684194654154E-005
          10  5.083169028511498E-004
          11  1.001186858216409E-004
          12 -8.562221917600406E-005
          13 -3.897063975279731E-004
          14  2.439087378698135E-004
          15 -2.602588910610644E-005
          16 -5.129416317858334E-005
          17  3.717419801876243E-002
          18  2.990504931292028E-002
          19 -2.074131509953830E-003
          20  1.305334583897911E-002
          21  1.935581922842186E-002
          22  9.949007762103883E-003
          23  1.694190706301056E-002
          24  1.656246351148970E-002
          25  0.143919049676099     
          26  9.720902914073480E-002
          27 -2.074859490662974E-002
          28 -2.963516030451311E-002
          29  0.481573125192644     
          30  6.638839158986165E-002
          31  4.536154765830955E-002
          32  4.167198808663881E-002
          33  0.215928867945819     
          34 -4.165441424841366E-002
          35  6.494570164848337E-002
          36 -0.103995657465642     
          37  0.129840784277660     
          38 -2.657353449745393E-002
          39  7.624564125239069E-002
          40 -2.761119009773370E-002
          41  0.257916178429129     
          42 -8.361376141652205E-002
          43 -6.566337838687967E-003
          44 -2.437715667139059E-003
          45  0.129875116696478     
          46 -2.082884677766630E-002
          47 -3.391894674114424E-002
          48  7.545382587687378E-002
          49  0.216663441933420     
          50 -3.293946066091550E-002
          51 -0.110195277834198     
          52  5.931778989948062E-002
          53  1.509083978746298E-005
          54 -2.180164240986508E-005
          55 -7.877942767077753E-005
          56 -1.240634526363485E-005
          57  1.723082104925562E-005
          58  2.364198530905023E-004
          59 -1.170871124790984E-004
          60 -5.117287933559799E-005
          61 -6.685432333210513E-006
          62  7.538391002190486E-003
          63 -1.685178951170723E-003
          64  3.632388331334975E-004
          65  2.641248090486643E-002
          66  2.581823991741743E-002
          67  9.552813322243843E-002
          68  3.446748938124974E-002
          69  3.994466373970829E-002
          70  1.888496226915211E-002
          71  8.478333921385297E-003
          72  8.497334089823628E-003
          73  1.889348938547256E-002
          74  3.458530274569305E-002
          75  4.015617448171810E-002
Sym=     2a
Ene=  -0.847711776756636     
Spin= Alpha
Occup=     2.00000000
           1  1.869806906691641E-004
           2 -8.068514812082147E-004
           3 -2.346729422569541E-005
           4 -4.130723427033763E-004
           5 -7.026416674976047E-003
           6 -1.025369907992490E-002
           7  1.999469442411372E-004
           8 -3.613373886531585E-004
           9 -1.435163416646947E-003
          10 -1.867755196617348E-003
          11 -9.886253830383909E-004
          12  7.070355700346292E-004
          13 -7.367486921528358E-004
          14 -1.538157072966416E-003
          15  8.801984157724124E-004
          16  4.019701986146365E-004
          17 -8.142770945477547E-002
          18 -4.717449045657198E-002
          19  5.516218669625824E-003
          20 -2.480336529465516E-002
          21 -3.994697903632042E-002
          22 -8.058163298442006E-003
          23 -3.159905273181024E-002
          24 -2.918867744280560E-002
          25 -0.207131812002399     
          26 -8.391666769545976E-002
          27  3.089882812609680E-002
          28  4.604373674060754E-002
          29 -0.273724708093137     
          30  0.145929062374918     
          31 -3.283465068367372E-002
          32 -2.948575703119952E-002
          33 -8.315859473760836E-003
          34  8.628796904351166E-002
          35 -1.725041261931087E-002
          36 -1.058310582508985E-003
          37  0.181771701259874     
          38  4.427796855209899E-002
          39  0.113445983133062     
          40 -5.994855430199290E-002
          41  0.554486168599135     
          42 -9.716701482465404E-002
          43 -1.761469988683457E-002
          44 -1.284183592666360E-002
          45  0.179349451587143     
          46  5.528813216761335E-002
          47 -6.483988453478097E-002
          48  0.106053766392494     
          49 -1.746416406726364E-002
          50  8.854425392517663E-002
          51  7.214433391078213E-003
          52 -2.193763108793755E-002
          53 -2.045256710202062E-005
          54 -4.054793820042291E-005
          55  8.093360504999315E-006
          56  8.732539579429176E-006
          57 -3.095967999874642E-004
          58 -9.734025872683129E-004
          59 -3.701972081584088E-004
          60 -1.473588929469343E-004
          61  1.032295228123655E-005
          62 -1.658357906212080E-002
          63  2.627174570796929E-004
          64 -3.901570871823419E-003
          65 -3.926316690940207E-002
          66 -4.201817325537125E-002
          67 -7.021569586062366E-002
          68 -1.212648411291139E-002
          69 -3.302400445924781E-003
          70  2.042048635772302E-002
          71  1.544554668567043E-002
          72  1.511083788162282E-002
          73  1.976056471494674E-002
          74 -1.498245938349608E-002
          75 -5.048612354123343E-003
Sym=     3a
Ene=  -0.825107363721288     
Spin= Alpha
Occup=     2.00000000
           1  5.251339931521437E-003
           2  6.815779168631125E-003
           3  3.472032291916726E-004
           4  4.367911584528463E-003
           5  4.637493993673489E-002
           6  4.031413146534190E-002
           7 -8.258929303417222E-004
           8 -1.626354503237195E-003
           9  1.050946307368307E-002
          10  8.392210840143367E-003
          11  6.233777524433456E-003
          12 -5.040679118299792E-003
          13  8.531703766407600E-003
          14  7.991495210319315E-003
          15 -6.199214259335720E-003
          16 -3.048555311809325E-003
          17  0.242624294209199     
          18  8.371338573372945E-002
          19 -2.316542663067448E-002
          20  4.525023342899467E-002
          21  0.128628912749100     
          22 -7.963511465238660E-003
          23  8.587793197502301E-002
          24  6.779339454064452E-002
          25  0.304377993170435     
          26  6.168257741344308E-003
          27 -3.584641126040122E-002
          28 -9.899335386020848E-002
          29 -5.677540720564916E-002
          30 -0.345742808140745     
          31  5.166186335723608E-002
          32 -8.845111787518214E-002
          33 -0.262965917181426     
          34  8.570044801958332E-003
          35 -3.753159181738420E-002
          36  7.848591643500580E-002
          37 -2.454324038185461E-002
          38  0.112873906735041     
          39  2.814731486730766E-002
          40 -5.120644125161419E-002
          41  0.338571925558588     
          42  2.054864081263598E-002
          43  2.103770357497759E-003
          44 -2.874793163292002E-002
          45  4.423218468486653E-002
          46  8.586980711658676E-002
          47 -3.595093922409120E-002
          48  3.233666393761662E-002
          49 -9.309351905695337E-002
          50 -2.929716522161065E-002
          51  4.932099239038368E-002
          52 -3.683940134955464E-002
          53  1.924528388109466E-004
          54  1.195465077883571E-003
          55  1.361105484595949E-003
          56  3.643882892383928E-004
          57  2.707685909699069E-003
          58  4.325746133662172E-003
          59  3.189390803773740E-003
          60  1.996218452839078E-003
          61  2.335562436686783E-004
          62  5.540192128304322E-002
          63  1.055807517733864E-002
          64  1.974115580292586E-002
          65  6.508273570053243E-002
          66  6.556064630737779E-002
          67  4.319851085750051E-002
          68 -5.461931276664352E-002
          69 -6.279141480142429E-002
          70 -1.630535487100916E-002
          71 -7.387877378505333E-003
          72  6.382751873165728E-003
          73 -1.879882699028255E-004
          74  6.356550614307913E-004
          75 -2.619785950456550E-002
Sym=     4a
Ene=  -0.818945235924152     
Spin= Alpha
Occup=     2.00000000
           1 -8.933252110910502E-004
           2 -1.056078465913514E-003
           3  1.535739536723641E-004
           4 -9.501809606947483E-004
           5 -9.508358421009793E-003
           6 -6.998672419438255E-003
           7  1.845138112045967E-003
           8 -1.190771584396512E-003
           9 -3.956361152252546E-003
          10 -2.708542492218415E-003
          11 -1.680613837088288E-003
          12  1.056330983711494E-003
          13 -1.350649716154867E-003
          14 -1.121686110972454E-003
          15  1.411173522494125E-003
          16  2.634033640186264E-004
          17 -2.950025464458509E-002
          18 -5.498996722469117E-003
          19  1.647738014920839E-002
          20 -1.679039563628964E-002
          21 -2.217605462693281E-002
          22  2.503632785283694E-003
          23 -6.538561231451638E-003
          24 -1.785939059517583E-002
          25 -9.211768885245243E-002
          26 -1.375652015464877E-002
          27  7.298307711585628E-002
          28 -3.886037732800739E-002
          29 -1.047046333261367E-003
          30  8.936690221617198E-002
          31  0.288452339541726     
          32 -0.273540566895371     
          33 -0.290810272213837     
          34  5.451369844413029E-002
          35  2.197331410131667E-002
          36  3.663572429507760E-002
          37 -0.162328538859324     
          38  3.037291021990670E-002
          39 -3.415940074590017E-002
          40 -1.710054936474905E-002
          41 -9.024544123272177E-002
          42 -1.533676098278295E-002
          43  8.345538405736422E-002
          44 -7.090994179645824E-002
          45  0.170993799299007     
          46 -9.051447502448827E-002
          47  3.529999184715853E-002
          48  2.682572599679442E-002
          49  0.392485989848581     
          50 -3.307499273111832E-002
          51 -7.431579964184279E-002
          52 -8.904868263289968E-003
          53 -5.796938533336006E-005
          54 -8.614897322521281E-005
          55 -2.939741057404114E-004
          56 -1.301181241328140E-004
          57 -1.004759912347205E-003
          58 -2.602571001446730E-003
          59 -7.902072962079395E-004
          60 -3.851846973771799E-005
          61 -5.485710470167052E-005
          62  3.816239046453785E-003
          63  3.265537812031586E-005
          64 -8.332539571864825E-003
          65 -2.801938825789483E-003
          66 -5.826138537051245E-002
          67 -8.872132472219438E-003
          68 -0.102037671622373     
          69 -6.464064412572945E-002
          70 -3.474638280189715E-002
          71 -3.522291720514480E-002
          72  3.757505709173885E-002
          73  4.278875112552082E-002
          74  0.116917136230224     
          75  8.984629722459132E-002
Sym=     5a
Ene=  -0.794154928984196     
Spin= Alpha
Occup=     2.00000000
           1 -4.709713199084953E-002
           2 -3.185098271200802E-002
           3 -9.159670898344090E-004
           4 -2.401657861323047E-002
           5 -0.164642694804887     
           6 -7.621840165380779E-002
           7  1.155865294225890E-002
           8  2.490784834090698E-002
           9 -4.548284157082701E-002
          10 -2.030399377088220E-002
          11 -2.175473072848709E-002
          12  2.381902302469050E-002
          13 -3.299075908864463E-002
          14 -1.645190986766540E-002
          15  2.314534173050511E-002
          16  1.437995978914333E-002
          17 -0.359161373063012     
          18  8.217721599938346E-003
          19  9.801704805486323E-002
          20  5.634379187267755E-002
          21 -0.316445541259857     
          22  7.411209884596151E-002
          23 -0.126242424312431     
          24 -6.859514951608460E-002
          25  0.122042038818162     
          26  0.164573941266370     
          27  2.548939299130249E-002
          28  8.463219033504220E-002
          29  0.105831532717329     
          30 -0.173564669892458     
          31  0.101438933873230     
          32  0.145590723784720     
          33 -0.106555794125566     
          34 -9.573394106266080E-002
          35  5.346466625536376E-002
          36  4.074766388964109E-002
          37 -0.140514780200137     
          38  7.496417208075078E-002
          39  5.446433980282189E-003
          40 -2.750309486400045E-002
          41  0.177851546297213     
          42  6.031113061709863E-002
          43  5.477722140214999E-002
          44 -4.816840558796043E-002
          45 -9.075761334011034E-003
          46  9.141276320247950E-002
          47 -1.512148695156994E-002
          48  2.097115071205487E-002
          49 -6.826584181466609E-002
          50 -4.356632164850266E-002
          51  3.266213647554176E-002
          52  4.585077769491291E-002
          53 -4.390377729838042E-003
          54 -1.085145903114023E-002
          55 -1.381890429911438E-002
          56 -4.814819119390163E-003
          57 -1.463909435535191E-002
          58 -8.985492262067924E-003
          59 -6.018295529557431E-003
          60 -7.985892601866117E-003
          61 -3.469026370771429E-003
          62 -9.604271252173059E-002
          63 -6.936080767267470E-002
          64 -7.198261133057021E-002
          65  5.545874876679210E-002
          66  4.124855219520440E-002
          67 -5.966966150866690E-002
          68 -2.645942575686653E-002
          69 -1.339743870754072E-002
          70 -4.870006362326953E-002
          71 -3.657604796514330E-002
          72  3.495997219306214E-003
          73 -1.900500672266746E-002
          74 -2.495446262505736E-002
          75 -1.053771173097660E-003
Sym=     6a
Ene=  -0.787265674143985     
Spin= Alpha
Occup=     2.00000000
           1 -1.155818179762301E-002
           2 -6.877800488404670E-003
           3  3.208881130287793E-004
           4 -6.015372619654739E-003
           5 -3.801029281628570E-002
           6 -1.359679558919874E-002
           7  5.899521562678776E-003
           8  3.534007607126767E-003
           9 -1.470777650488690E-002
          10 -5.909189590046555E-003
          11 -5.738132692488587E-003
          12  5.859850002336233E-003
          13 -7.047617614004076E-003
          14 -2.617116590958754E-003
          15  5.748623368332764E-003
          16  2.755569381379480E-003
          17 -5.094974024513826E-002
          18  1.511742299767693E-002
          19  3.616777314400046E-002
          20  6.641982437894513E-003
          21 -6.809687491665095E-002
          22  1.721596699787394E-002
          23 -1.349057491240280E-002
          24 -1.762348006299323E-002
          25  1.065380484852816E-002
          26  2.550042147424093E-002
          27  6.169905585347321E-002
          28 -3.422026387958625E-002
          29  1.353419247280354E-002
          30 -2.392186920052203E-002
          31  0.198768616014277     
          32 -0.137798747244178     
          33 -7.467925433740766E-002
          34  0.149296100331643     
          35 -1.672869723905120E-002
          36  1.124283587900307E-002
          37  0.317556590540104     
          38  0.105016809605609     
          39  6.048272203324588E-002
          40  2.452110921851217E-003
          41  2.328261960336014E-002
          42  2.535134975066762E-002
          43 -0.299544560903402     
          44  0.282501026594824     
          45 -0.343445187015444     
          46 -8.463545610057063E-002