[Molden Format]
[Title]
[Atoms] AU
N      1     7 -0.18952421428868E+01 -0.20113962346493E+01  0.35465046452526E+01
C      2     6  0.30055566822830E+00 -0.88986399183858E+00  0.22789246369021E+01
C      3     6  0.27481755035306E+01 -0.24248581868979E+01  0.24980572544123E+01
C      4     6  0.48557391304478E+01 -0.11961532784622E+01  0.10269245092929E+01
C      5     6  0.57032627600655E+01 -0.22346670817669E+01 -0.12280296991869E+01
C      6     6  0.76199529937417E+01 -0.10806423486773E+01 -0.25840194212141E+01
C      7     6  0.86986397556357E+01  0.11336124301161E+01 -0.17039664060447E+01
C      8     6  0.78646901976987E+01  0.21821171613028E+01  0.54429924153796E+00
C      9     6  0.59557538015875E+01  0.10220883393459E+01  0.19021431991666E+01
C     10     6 -0.49047395666898E+00 -0.59021198054704E+00 -0.51990491030995E+00
N     11     7 -0.31876763131016E+01  0.13716957461681E+00 -0.51635733492478E+00
C     12     6 -0.47076329409720E+01 -0.92569342705278E+00 -0.26004609139435E+01
C     13     6 -0.74954834507633E+01 -0.25983007373648E+00 -0.21724980992766E+01
O     14     8 -0.78303598638338E+01  0.23647629703150E+01 -0.20229425061194E+01
C     15     6 -0.64335392602081E+01  0.34099649130904E+01 -0.27377252767627E-01
C     16     6 -0.36042260595203E+01  0.28962868630494E+01 -0.37672121698143E+00
H     17     1 -0.18605317559812E+01 -0.39260931910888E+01  0.33944523518595E+01
H     18     1 -0.19362841002118E+01 -0.15918711783296E+01  0.54126807896710E+01
H     19     1  0.60996163548609E+00  0.98549073524183E+00  0.30939137633564E+01
H     20     1  0.24208146679728E+01 -0.43373773271283E+01  0.17927528999844E+01
H     21     1  0.32759660193373E+01 -0.25563790389048E+01  0.44891829549432E+01
H     22     1  0.48883154491583E+01 -0.39771081353801E+01 -0.19152887817709E+01
H     23     1  0.82764317611327E+01 -0.19194533164896E+01 -0.43229069710563E+01
H     24     1  0.10196432282201E+02  0.20303085854093E+01 -0.27561873509014E+01
H     25     1  0.87123462327698E+01  0.38974279886021E+01  0.12496011122091E+01
H     26     1  0.53382504380563E+01  0.18303566439015E+01  0.36732833857838E+01
H     27     1  0.67289280452931E+00  0.80191592201944E+00 -0.14906171881925E+01
H     28     1 -0.29157131853281E+00 -0.24023869043877E+01 -0.14842273435515E+01
H     29     1 -0.37065147389203E+01 -0.70699787052034E+00  0.12680352934613E+01
H     30     1 -0.44701465802759E+01 -0.29710648159268E+01 -0.26618116692283E+01
H     31     1 -0.40589323153057E+01 -0.10412580121166E+00 -0.43805038452236E+01
H     32     1 -0.86333449179501E+01 -0.90459168683233E+00 -0.37651693221833E+01
H     33     1 -0.81761013694483E+01 -0.11825410861201E+01 -0.43590406964204E+00
H     34     1 -0.67993378809791E+01  0.54377928996532E+01 -0.57141387821645E-01
H     35     1 -0.70688975751889E+01  0.26329437379188E+01  0.17953005611775E+01
H     36     1 -0.25345053259223E+01  0.36799863712603E+01  0.11976287662823E+01
H     37     1 -0.29573792349120E+01  0.37510818201065E+01 -0.21416496749519E+01
[GTO]
           1 0
 s           4   1.00000000000000     
   63.5940244669410      -0.192343884147216     
   10.9514172315237      -0.234781079249537     
  0.879993102573770       0.375937539017009     
  0.335387152965211       0.149828892718628     
 p           4   1.00000000000000     
   7.29650404814951       0.976586663156674     
   1.89187454507126       0.903722267303458     
  0.666944321108241       0.474049584615364     
  0.265522026741309       7.151606771501186E-002
 
           2 0
 s           4   1.00000000000000     
   51.0493630955799      -0.163120632101274     
   8.79112274068875      -0.199110245810007     
  0.706404222589298       0.318820477536558     
  0.269228134134116       0.127065041842404     
 p           4   1.00000000000000     
   5.82636561408000       0.737164515452096     
   1.51068960187200       0.682163716148503     
  0.532564832880000       0.357830539292537     
  0.212023236906000       5.398303027584788E-002
 
           3 0
 s           4   1.00000000000000     
   51.0493630955799      -0.163120632101274     
   8.79112274068875      -0.199110245810007     
  0.706404222589298       0.318820477536558     
  0.269228134134116       0.127065041842404     
 p           4   1.00000000000000     
   5.82636561408000       0.737164515452096     
   1.51068960187200       0.682163716148503     
  0.532564832880000       0.357830539292537     
  0.212023236906000       5.398303027584788E-002
 
           4 0
 s           4   1.00000000000000     
   51.0493630955799      -0.163120632101274     
   8.79112274068875      -0.199110245810007     
  0.706404222589298       0.318820477536558     
  0.269228134134116       0.127065041842404     
 p           4   1.00000000000000     
   5.82636561408000       0.737164515452096     
   1.51068960187200       0.682163716148503     
  0.532564832880000       0.357830539292537     
  0.212023236906000       5.398303027584788E-002
 
           5 0
 s           4   1.00000000000000     
   51.0493630955799      -0.163120632101274     
   8.79112274068875      -0.199110245810007     
  0.706404222589298       0.318820477536558     
  0.269228134134116       0.127065041842404     
 p           4   1.00000000000000     
   5.82636561408000       0.737164515452096     
   1.51068960187200       0.682163716148503     
  0.532564832880000       0.357830539292537     
  0.212023236906000       5.398303027584788E-002
 
           6 0
 s           4   1.00000000000000     
   51.0493630955799      -0.163120632101274     
   8.79112274068875      -0.199110245810007     
  0.706404222589298       0.318820477536558     
  0.269228134134116       0.127065041842404     
 p           4   1.00000000000000     
   5.82636561408000       0.737164515452096     
   1.51068960187200       0.682163716148503     
  0.532564832880000       0.357830539292537     
  0.212023236906000       5.398303027584788E-002
 
           7 0
 s           4   1.00000000000000     
   51.0493630955799      -0.163120632101274     
   8.79112274068875      -0.199110245810007     
  0.706404222589298       0.318820477536558     
  0.269228134134116       0.127065041842404     
 p           4   1.00000000000000     
   5.82636561408000       0.737164515452096     
   1.51068960187200       0.682163716148503     
  0.532564832880000       0.357830539292537     
  0.212023236906000       5.398303027584788E-002
 
           8 0
 s           4   1.00000000000000     
   51.0493630955799      -0.163120632101274     
   8.79112274068875      -0.199110245810007     
  0.706404222589298       0.318820477536558     
  0.269228134134116       0.127065041842404     
 p           4   1.00000000000000     
   5.82636561408000       0.737164515452096     
   1.51068960187200       0.682163716148503     
  0.532564832880000       0.357830539292537     
  0.212023236906000       5.398303027584788E-002
 
           9 0
 s           4   1.00000000000000     
   51.0493630955799      -0.163120632101274     
   8.79112274068875      -0.199110245810007     
  0.706404222589298       0.318820477536558     
  0.269228134134116       0.127065041842404     
 p           4   1.00000000000000     
   5.82636561408000       0.737164515452096     
   1.51068960187200       0.682163716148503     
  0.532564832880000       0.357830539292537     
  0.212023236906000       5.398303027584788E-002
 
          10 0
 s           4   1.00000000000000     
   51.0493630955799      -0.163120632101274     
   8.79112274068875      -0.199110245810007     
  0.706404222589298       0.318820477536558     
  0.269228134134116       0.127065041842404     
 p           4   1.00000000000000     
   5.82636561408000       0.737164515452096     
   1.51068960187200       0.682163716148503     
  0.532564832880000       0.357830539292537     
  0.212023236906000       5.398303027584788E-002
 
          11 0
 s           4   1.00000000000000     
   63.5940244669410      -0.192343884147216     
   10.9514172315237      -0.234781079249537     
  0.879993102573770       0.375937539017009     
  0.335387152965211       0.149828892718628     
 p           4   1.00000000000000     
   7.29650404814951       0.976586663156674     
   1.89187454507126       0.903722267303458     
  0.666944321108241       0.474049584615364     
  0.265522026741309       7.151606771501186E-002
 
          12 0
 s           4   1.00000000000000     
   51.0493630955799      -0.163120632101274     
   8.79112274068875      -0.199110245810007     
  0.706404222589298       0.318820477536558     
  0.269228134134116       0.127065041842404     
 p           4   1.00000000000000     
   5.82636561408000       0.737164515452096     
   1.51068960187200       0.682163716148503     
  0.532564832880000       0.357830539292537     
  0.212023236906000       5.398303027584788E-002
 
          13 0
 s           4   1.00000000000000     
   51.0493630955799      -0.163120632101274     
   8.79112274068875      -0.199110245810007     
  0.706404222589298       0.318820477536558     
  0.269228134134116       0.127065041842404     
 p           4   1.00000000000000     
   5.82636561408000       0.737164515452096     
   1.51068960187200       0.682163716148503     
  0.532564832880000       0.357830539292537     
  0.212023236906000       5.398303027584788E-002
 
          14 0
 s           4   1.00000000000000     
   69.1379619061966      -0.204787563700778     
   11.9061291327073      -0.249970231368273     
  0.956708277443407       0.400258802406396     
  0.364625204960737       0.159522066676936     
 p           4   1.00000000000000     
   8.21241932577816        1.13215567991868     
   2.12935769970981        1.04768407822548     
  0.750664482023609       0.549565082171590     
  0.298852465432831       8.290848659276662E-002
 
          15 0
 s           4   1.00000000000000     
   51.0493630955799      -0.163120632101274     
   8.79112274068875      -0.199110245810007     
  0.706404222589298       0.318820477536558     
  0.269228134134116       0.127065041842404     
 p           4   1.00000000000000     
   5.82636561408000       0.737164515452096     
   1.51068960187200       0.682163716148503     
  0.532564832880000       0.357830539292537     
  0.212023236906000       5.398303027584788E-002
 
          16 0
 s           4   1.00000000000000     
   51.0493630955799      -0.163120632101274     
   8.79112274068875      -0.199110245810007     
  0.706404222589298       0.318820477536558     
  0.269228134134116       0.127065041842404     
 p           4   1.00000000000000     
   5.82636561408000       0.737164515452096     
   1.51068960187200       0.682163716148503     
  0.532564832880000       0.357830539292537     
  0.212023236906000       5.398303027584788E-002
 
          17 0
 s           3   1.00000000000000     
   3.37022769753360       0.273591105889083     
  0.613891182214980       0.264605406538605     
  0.166142911484160       8.246594753408230E-002
 
          18 0
 s           3   1.00000000000000     
   3.37022769753360       0.273591105889083     
  0.613891182214980       0.264605406538605     
  0.166142911484160       8.246594753408230E-002
 
          19 0
 s           3   1.00000000000000     
   3.37022769753360       0.273591105889083     
  0.613891182214980       0.264605406538605     
  0.166142911484160       8.246594753408230E-002
 
          20 0
 s           3   1.00000000000000     
   3.37022769753360       0.273591105889083     
  0.613891182214980       0.264605406538605     
  0.166142911484160       8.246594753408230E-002
 
          21 0
 s           3   1.00000000000000     
   3.37022769753360       0.273591105889083     
  0.613891182214980       0.264605406538605     
  0.166142911484160       8.246594753408230E-002
 
          22 0
 s           3   1.00000000000000     
   3.37022769753360       0.273591105889083     
  0.613891182214980       0.264605406538605     
  0.166142911484160       8.246594753408230E-002
 
          23 0
 s           3   1.00000000000000     
   3.37022769753360       0.273591105889083     
  0.613891182214980       0.264605406538605     
  0.166142911484160       8.246594753408230E-002
 
          24 0
 s           3   1.00000000000000     
   3.37022769753360       0.273591105889083     
  0.613891182214980       0.264605406538605     
  0.166142911484160       8.246594753408230E-002
 
          25 0
 s           3   1.00000000000000     
   3.37022769753360       0.273591105889083     
  0.613891182214980       0.264605406538605     
  0.166142911484160       8.246594753408230E-002
 
          26 0
 s           3   1.00000000000000     
   3.37022769753360       0.273591105889083     
  0.613891182214980       0.264605406538605     
  0.166142911484160       8.246594753408230E-002
 
          27 0
 s           3   1.00000000000000     
   3.37022769753360       0.273591105889083     
  0.613891182214980       0.264605406538605     
  0.166142911484160       8.246594753408230E-002
 
          28 0
 s           3   1.00000000000000     
   3.37022769753360       0.273591105889083     
  0.613891182214980       0.264605406538605     
  0.166142911484160       8.246594753408230E-002
 
          29 0
 s           3   1.00000000000000     
   3.37022769753360       0.273591105889083     
  0.613891182214980       0.264605406538605     
  0.166142911484160       8.246594753408230E-002
 
          30 0
 s           3   1.00000000000000     
   3.37022769753360       0.273591105889083     
  0.613891182214980       0.264605406538605     
  0.166142911484160       8.246594753408230E-002
 
          31 0
 s           3   1.00000000000000     
   3.37022769753360       0.273591105889083     
  0.613891182214980       0.264605406538605     
  0.166142911484160       8.246594753408230E-002
 
          32 0
 s           3   1.00000000000000     
   3.37022769753360       0.273591105889083     
  0.613891182214980       0.264605406538605     
  0.166142911484160       8.246594753408230E-002
 
          33 0
 s           3   1.00000000000000     
   3.37022769753360       0.273591105889083     
  0.613891182214980       0.264605406538605     
  0.166142911484160       8.246594753408230E-002
 
          34 0
 s           3   1.00000000000000     
   3.37022769753360       0.273591105889083     
  0.613891182214980       0.264605406538605     
  0.166142911484160       8.246594753408230E-002
 
          35 0
 s           3   1.00000000000000     
   3.37022769753360       0.273591105889083     
  0.613891182214980       0.264605406538605     
  0.166142911484160       8.246594753408230E-002
 
          36 0
 s           3   1.00000000000000     
   3.37022769753360       0.273591105889083     
  0.613891182214980       0.264605406538605     
  0.166142911484160       8.246594753408230E-002
 
          37 0
 s           3   1.00000000000000     
   3.37022769753360       0.273591105889083     
  0.613891182214980       0.264605406538605     
  0.166142911484160       8.246594753408230E-002
 
[MO]
Sym=     1a
Ene=  -0.861864365822054     
Spin= Alpha
Occup=     2.00000000
           1  1.941181484010726E-002
           2  3.309662720823216E-003
           3  1.251401269339757E-002
           4 -2.232040508793629E-002
           5  3.963855573736985E-002
           6 -2.551739289067173E-002
           7  5.304762155821804E-003
           8 -2.276441986997857E-002
           9  9.158159303471037E-004
          10 -3.538236101678713E-003
          11  1.451456329576610E-003
          12 -1.271827840465780E-003
          13 -4.302557272549101E-004
          14 -3.346651417643630E-004
          15  9.953457967655392E-005
          16  6.390643694203607E-006
          17 -1.894218276428603E-004
          18  6.087062047169001E-005
          19 -2.932819476730793E-005
          20 -5.272463896139588E-005
          21 -2.271984553910924E-005
          22  1.951423123822494E-005
          23  3.684032279139968E-006
          24 -1.401747228692026E-005
          25 -6.544164109114101E-006
          26  5.310456676143022E-006
          27  3.341868530578170E-006
          28 -2.867255382155430E-006
          29 -1.629949019834006E-005
          30  1.057531887051617E-005
          31  1.017370418292340E-005
          32 -3.368526980118717E-006
          33 -1.122589587426641E-004
          34 -1.405530833570888E-006
          35  5.247905691855975E-005
          36  1.029798633234588E-005
          37  0.151456964462730     
          38 -0.104013714459820     
          39  3.176178071170540E-002
          40 -2.108966004289386E-004
          41  0.497912329148567     
          42 -2.326291777487538E-002
          43  4.856895476527432E-002
          44 -6.934122855624528E-002
          45  0.215984306471291     
          46  4.866073155597968E-002
          47  7.311143440015472E-002
          48  9.810312439952298E-002
          49  0.119993035211362     
          50  5.319864460729063E-002
          51  5.649595253783674E-002
          52  1.786564594506727E-002
          53  0.227922842247576     
          54  6.348574253119148E-002
          55 -3.546985006471773E-002
          56  2.936844844549122E-002
          57  0.120009498787554     
          58  1.969404182336316E-002
          59 -5.899494571525868E-002
          60 -4.967134717482789E-002
          61  0.215707661436515     
          62 -1.014004309319576E-002
          63 -0.129507805676561     
          64 -1.979808606035778E-002
          65  4.330832751651352E-004
          66 -1.759726072358529E-003
          67  7.596579315279873E-003
          68  3.560351186432045E-004
          69  2.493067929187276E-005
          70 -9.169339836569878E-005
          71 -2.841635734925656E-006
          72 -5.143235798690423E-007
          73 -9.797377921671107E-007
          74 -3.505620184009409E-005
          75  2.761530936518106E-002
          76  2.669000400493060E-002
          77  0.101086906534501     
          78  3.452652839596555E-002
          79  3.954194563279079E-002
          80  7.619227556098012E-003
          81  1.772033002034595E-002
          82  7.623452478151774E-003
          83  1.776733895426914E-002
          84  3.433162347216440E-002
          85  3.957147087575471E-002
Sym=     2a
Ene=  -0.850318753593271     
Spin= Alpha
Occup=     2.00000000
           1 -3.958504977262883E-002
           2 -1.454096207207442E-002
           3 -1.941700574398474E-002
           4  3.569310718440560E-002
           5 -8.372987236381942E-002
           6  3.860477616808891E-002
           7 -4.068021347165033E-003
           8  3.747008370123128E-002
           9 -8.122128074443758E-003
          10  9.898323814064721E-003
          11 -4.570128334388968E-003
          12  3.571937990984648E-003
          13 -8.837271154879214E-004
          14  2.075682841902187E-003
          15 -1.072959914969336E-004
          16 -8.902571980812808E-005
          17 -1.657663816518822E-005
          18  2.575972368117124E-004
          19 -6.031333007150819E-005
          20 -7.986400358800560E-005
          21  3.696557115078083E-005
          22  2.349519603136139E-007
          23 -4.914438604931128E-006
          24  7.377786513217552E-006
          25  1.647665293672809E-005
          26 -2.494709008852116E-006
          27 -3.740578111773704E-006
          28  3.473522971392799E-006
          29  3.332032956853818E-005
          30  4.408136547112731E-006
          31 -5.766232280234026E-006
          32  3.912115336940401E-006
          33 -3.922857055882973E-005
          34  2.707449248569967E-004
          35  6.793478743045842E-005
          36  4.192768449379970E-005
          37 -0.206255082482873     
          38  9.330588182425870E-002
          39 -2.090253782814380E-002
          40 -2.269081914229928E-002
          41 -0.249732268152091     
          42 -0.154946112004402     
          43  4.660417907064005E-002
          44 -2.186645661735510E-002
          45  7.251948456849519E-003
          46 -7.993091555792579E-002
          47  2.522238944139839E-002
          48 -1.866317563282949E-002
          49  0.188049056878903     
          50  8.970502935284794E-003
          51  0.135772010800502     
          52  1.766637988261923E-002
          53  0.558341950089239     
          54  7.564853394852589E-002
          55 -5.154825468280683E-002
          56  4.984599790921282E-002
          57  0.185664165999265     
          58 -5.307101594938426E-002
          59 -7.224955873869410E-002
          60 -0.104310064987020     
          61 -1.641563711871303E-003
          62 -7.804408777841570E-002
          63  4.083977734946241E-002
          64 -1.291113923591641E-002
          65 -4.156552380618623E-003
          66  1.896009186884898E-004
          67 -1.638543086308456E-002
          68 -1.832440789720773E-003
          69 -6.335505321080440E-004
          70  3.295482079164541E-005
          71  9.066015847610509E-007
          72 -6.958266624415868E-007
          73 -1.766024617684309E-006
          74  7.812995001152452E-006
          75 -3.882485643192810E-002
          76 -4.160517255116616E-002
          77 -6.580788109847557E-002
          78 -9.484013951904586E-003
          79 -1.321587763007866E-004
          80  1.581864744560302E-002
          81  2.153172929715773E-002
          82  1.548844166984578E-002
          83  2.091326835181689E-002
          84 -1.221091673483236E-002
          85 -1.737344954884892E-003
Sym=     3a
Ene=  -0.828353315305091     
Spin= Alpha
Occup=     2.00000000
           1 -0.127105625169891     
           2 -6.100519733960695E-002
           3 -4.619686670172629E-002
           4  7.839155423940788E-002
           5 -0.244796096102174     
           6  7.473355740523423E-002
           7  5.327608195971770E-003
           8  6.404364750452286E-002
           9 -4.571864460698577E-002
          10  3.729102292019737E-002
          11 -1.863460292407540E-002
          12  1.085580716083827E-002
          13 -8.689842744454274E-003
          14  1.043841594260353E-002
          15  1.625138397279517E-004
          16 -1.344222165056846E-003
          17 -1.252726287342012E-003
          18  1.817690986945876E-003
          19 -5.121061031138710E-004
          20 -9.986051542453917E-004
          21  1.314932808158867E-004
          22  1.268446890496293E-004
          23 -1.433402932710591E-005
          24 -4.329406179710589E-005
          25  8.928850714228939E-005
          26  1.731052990233920E-005
          27 -8.047745661778699E-006
          28  7.092372109167619E-006
          29  1.321429016729574E-004
          30  1.283839961970360E-004
          31  3.986420547916299E-005
          32 -1.533856199012574E-006
          33 -1.321126421803410E-003
          34  1.936450995541039E-003
          35  9.649046973965539E-004
          36  2.657149937049850E-004
          37 -0.302695103032811     
          38  4.173115952320099E-002
          39 -5.540081260347169E-003
          40 -9.783578682223910E-002
          41  6.050015632768161E-002
          42 -0.302152544550340     
          43  6.104530423176797E-002
          44 -0.184681157436979     
          45  0.258825845493575     
          46  1.089109965131093E-002
          47  5.380226505393457E-002
          48  6.824735656129050E-002
          49  1.734091851029994E-002
          50  9.153280528263269E-002
          51 -8.912209515922845E-002
          52 -3.104737855230111E-003
          53 -0.349540558781568     
          54  1.948028219007465E-002
          55 -1.696523747263631E-002
          56 -2.007635979042730E-002
          57 -4.918805891753702E-002
          58  8.378581249990645E-002
          59  9.357536006894587E-003
          60  5.368487959003896E-002
          61  9.027531377253298E-002
          62 -3.952154676846854E-002
          63 -4.333369432408568E-002
          64 -3.236358917516165E-002
          65 -1.981036696492306E-002
          66 -1.004938459314305E-002
          67 -5.421285051432582E-002
          68 -1.021472583637211E-002
          69 -5.821164335549221E-003
          70 -4.269868564014717E-004
          71 -4.340662128183682E-006
          72 -3.288087003477235E-006
          73 -6.676543350170559E-006
          74 -4.361932064884868E-004
          75 -6.388161259119585E-002
          76 -6.498790539994775E-002
          77 -3.765681791586116E-002
          78  5.361008663427367E-002
          79  6.101823590845729E-002
          80  6.354697350674365E-003
          81  1.510354103556537E-002
          82 -6.765324314265906E-003
          83 -4.266100715862317E-004
          84 -8.565236617487713E-004
          85  2.508103618847989E-002
Sym=     4a
Ene=  -0.821972129552868     
Spin= Alpha
Occup=     2.00000000
           1  1.991928626367934E-002
           2  8.316425384685928E-003
           3 -1.926190006209493E-003
           4 -1.562171300867273E-002
           5  2.694209337594454E-002
           6 -8.110941406693224E-003
           7 -1.822217637009263E-002
           8 -1.312712442422199E-002
           9  8.910694489650654E-003
          10 -6.791849170638325E-003
          11  1.414384294832136E-003
          12 -2.794180585226852E-003
          13  1.339491143541787E-003
          14 -1.672435941406487E-003
          15 -5.145488737816086E-004
          16  9.304944714949939E-005
          17  4.007492542351639E-004
          18 -5.190504556425162E-004
          19  2.191453489351692E-005
          20  1.784001611798168E-004
          21 -2.864617488457606E-005
          22 -3.321997286773160E-005
          23 -6.988838064949384E-006
          24  6.415412169052176E-006
          25 -2.694796752511559E-005
          26  4.056763785444949E-006
          27  2.682674669529003E-006
          28 -6.033799994138924E-006
          29 -5.387657174012030E-005
          30  9.879358642499347E-006
          31  7.473767901271626E-006
          32 -6.442961423851390E-006
          33 -4.045564425773535E-005
          34 -1.064317780766354E-004
          35 -1.328934367865506E-004
          36 -1.706365587554362E-005
          37  9.206473216476344E-002
          38 -3.962372427984846E-002
          39 -7.055298003978509E-002
          40 -2.622695801238329E-002
          41 -4.664464837358057E-004
          42 -5.566894607847551E-003
          43 -0.379232553433882     
          44 -0.165616161014477     
          45  0.290833879143883     
          46  2.933899659232431E-002
          47 -2.790346448010475E-002
          48  5.732985507048181E-002
          49  0.159863516427306     
          50  4.584883145307284E-002
          51  1.162394354018795E-002
          52 -1.187072067415962E-002
          53  9.351127573343786E-002
          54 -3.713712576421326E-002
          55 -8.622783308154504E-002
          56 -5.101024055896169E-002
          57 -0.166264630834969     
          58 -0.100036555769584     
          59  1.508261065055699E-002
          60 -2.447182826087439E-005
          61 -0.392084742769129     
          62  9.197771191619667E-003
          63  7.598650114554886E-002
          64 -3.529293901235088E-002
          65  7.805933604174455E-003
          66 -1.831299873077093E-004
          67 -4.258507794419638E-003
          68  3.066915410214950E-003
          69  1.021281645143171E-003
          70  2.672500798591893E-004
          71 -1.964095979736783E-006
          72  1.032458080272275E-007
          73  5.015357115445799E-007
          74 -1.422841057485466E-005
          75  3.690769292574326E-003
          76  5.790653630555896E-002
          77  6.380397192439977E-003
          78  0.101433241314875     
          79  6.423558151896309E-002
          80  3.410874866127592E-002
          81  3.390879534944616E-002
          82 -3.611419025659195E-002
          83 -4.177196572693107E-002
          84 -0.115991668886266     
          85 -8.877627074815801E-002
Sym=     5a
Ene=  -0.796967152350316     
Spin= Alpha
Occup=     2.00000000
           1 -0.319884263900284     
           2 -0.139552541979956     
           3 -5.941036859868291E-002
           4  7.345104099745135E-002
           5 -0.365131239221299     
           6  5.908318441210439E-002
           7  6.867790101075681E-002
           8 -7.391872229811405E-002
           9 -0.136309802872885     
          10  7.757799030786421E-002
          11 -3.709104851202745E-002
          12  1.261382471982241E-003
          13 -2.835424968747133E-002
          14  2.342440585622232E-002
          15  3.365689920338587E-003
          16 -9.695952870619683E-003
          17 -3.565049500153299E-003
          18  3.804442424121614E-003
          19 -8.434915003011039E-004
          20 -4.037535460336458E-003
          21  6.689574880432926E-004
          22  2.476313843093202E-004
          23  1.853591177833304E-006
          24 -1.884958710436049E-004
          25  4.494559205999038E-004
          26  5.914735579462284E-006
          27 -3.790561493228366E-005
          28  2.861550355497104E-006
          29  4.117391225478065E-004
          30  5.527479933641258E-004
          31  2.946346456244118E-004
          32 -1.762399053739106E-004
          33 -6.323749124029863E-003
          34  5.970473217750959E-003
          35  4.377627809894077E-003
          36 -6.826674781719265E-005
          37  0.119726295078065     
          38 -0.116760595953970     
          39  5.884276534603055E-002
          40 -0.142221025944759     
          41  0.107430442238959     
          42  0.233642369901111     
          43 -3.125044137026543E-002
          44 -9.709137427747197E-002
          45 -0.111728611848750     
          46  0.117726139844795     
          47 -6.476627384838378E-003
          48 -1.687901822521903E-002
          49 -0.142932439864508     
          50 -6.877083987648971E-002
          51  4.492721218678696E-002
          52 -9.564631386075897E-004