[Molden Format]
[Title]
[Atoms] AU
N      1     7  0.20873806616555E+01 -0.42169245973297E+00 -0.28321209958787E+01
C      2     6  0.88932378296530E+00  0.81642757387172E+00 -0.65456149930906E+00
C      3     6  0.24191353309139E+01 -0.10957868577684E+00  0.16656816296691E+01
N      4     7  0.50732591796531E+01 -0.32964231112871E+00  0.81898020663488E+00
C      5     6  0.65599029074655E+01  0.20066926174709E+01  0.11687954477899E+01
C      6     6  0.91440365239849E+01  0.16851375589475E+01 -0.98338602919187E-01
O      7     8  0.10435019268649E+02 -0.39564711529174E+00  0.91721206941015E+00
C      8     6  0.90735782798264E+01 -0.26436781035992E+01  0.57370469664678E+00
C      9     6  0.64842290404264E+01 -0.24939701801625E+01  0.18652846515748E+01
C     10     6 -0.20063768549894E+01  0.43640247197871E+00 -0.41564050964050E+00
C     11     6 -0.29565564818783E+01  0.17682164588608E+01  0.19782591147124E+01
C     12     6 -0.58343551280612E+01  0.15548293306545E+01  0.21571335173435E+01
C     13     6 -0.70522049206757E+01  0.27871756329865E+01 -0.14917964478649E+00
C     14     6 -0.61440152942795E+01  0.14391692597572E+01 -0.25325950116797E+01
C     15     6 -0.32708184828186E+01  0.16574456839736E+01 -0.27281279158005E+01
C     16     6 -0.68857817797252E+01 -0.13473453702974E+01 -0.24234357409594E+01
C     17     6 -0.56603453327012E+01 -0.25639932349746E+01 -0.11155311619507E+00
C     18     6 -0.27787908560348E+01 -0.23540475709474E+01 -0.30235988285340E+00
C     19     6 -0.65758853082301E+01 -0.12317634366534E+01  0.22789189699467E+01
H     20     1  0.18639240791191E+01  0.59127867158044E+00 -0.44388847244972E+01
H     21     1  0.13271032682549E+01 -0.21599166631135E+01 -0.31265642764660E+01
H     22     1  0.12194288907348E+01  0.28510458496634E+01 -0.86693683186638E+00
H     23     1  0.17593641679212E+01 -0.19733283069692E+01  0.22444921046618E+01
H     24     1  0.22584584409975E+01  0.11853594167523E+01  0.32546049717708E+01
H     25     1  0.46748624804319E+01 -0.60089287572435E+00 -0.11892512773909E+01
H     26     1  0.68188629632138E+01  0.23317453240925E+01  0.31921056122765E+01
H     27     1  0.55511665647369E+01  0.35988356907200E+01  0.34064563969533E+00
H     28     1  0.88958087343815E+01  0.14595315456544E+01 -0.21518240615483E+01
H     29     1  0.10324597279391E+02  0.33359423715235E+01  0.25894091177496E+00
H     30     1  0.10204407528556E+02 -0.41461601423769E+01  0.14162745391885E+01
H     31     1  0.88207866223757E+01 -0.30400127445663E+01 -0.14534359905253E+01
H     32     1  0.54292555910429E+01 -0.42332054925607E+01  0.15387315959922E+01
H     33     1  0.67346324536253E+01 -0.22116826061264E+01  0.38960246209560E+01
H     34     1 -0.21222769278108E+01  0.90121696652387E+00  0.36541078610265E+01
H     35     1 -0.24064130421667E+01  0.37574701921827E+01  0.19378145118727E+01
H     36     1 -0.64694784567265E+01  0.25164078366968E+01  0.38734858909907E+01
H     37     1 -0.91037748426997E+01  0.26587969665094E+01 -0.10027354270926E-01
H     38     1 -0.65492913459753E+01  0.47866407916857E+01 -0.23171928371725E+00
H     39     1 -0.69984229870061E+01  0.23202195228312E+01 -0.41964485874141E+01
H     40     1 -0.27357801926999E+01  0.36489869870388E+01 -0.28442072419275E+01
H     41     1 -0.26440588432406E+01  0.72397322363392E+00 -0.44612793118765E+01
H     42     1 -0.89346221556239E+01 -0.15225389415978E+01 -0.22977544046827E+01
H     43     1 -0.62781065267248E+01 -0.23125375513628E+01 -0.41442720325972E+01
H     44     1 -0.61749030187134E+01 -0.45656006414082E+01 -0.28734029885244E-01
H     45     1 -0.21595356914911E+01 -0.33610944679204E+01 -0.19979191345632E+01
H     46     1 -0.19383596117542E+01 -0.32801448747149E+01  0.13406340610934E+01
H     47     1 -0.86231903264230E+01 -0.14050938285220E+01  0.24292974676094E+01
H     48     1 -0.57451796318730E+01 -0.21153803400644E+01  0.39492270193797E+01
[GTO]
           1 0
 s           4   1.00000000000000     
   63.5940244669410      -0.192343884147216     
   10.9514172315237      -0.234781079249537     
  0.879993102573770       0.375937539017009     
  0.335387152965211       0.149828892718628     
 p           4   1.00000000000000     
   7.29650404814951       0.976586663156674     
   1.89187454507126       0.903722267303458     
  0.666944321108241       0.474049584615364     
  0.265522026741309       7.151606771501186E-002
 
           2 0
 s           4   1.00000000000000     
   51.0493630955799      -0.163120632101274     
   8.79112274068875      -0.199110245810007     
  0.706404222589298       0.318820477536558     
  0.269228134134116       0.127065041842404     
 p           4   1.00000000000000     
   5.82636561408000       0.737164515452096     
   1.51068960187200       0.682163716148503     
  0.532564832880000       0.357830539292537     
  0.212023236906000       5.398303027584788E-002
 
           3 0
 s           4   1.00000000000000     
   51.0493630955799      -0.163120632101274     
   8.79112274068875      -0.199110245810007     
  0.706404222589298       0.318820477536558     
  0.269228134134116       0.127065041842404     
 p           4   1.00000000000000     
   5.82636561408000       0.737164515452096     
   1.51068960187200       0.682163716148503     
  0.532564832880000       0.357830539292537     
  0.212023236906000       5.398303027584788E-002
 
           4 0
 s           4   1.00000000000000     
   63.5940244669410      -0.192343884147216     
   10.9514172315237      -0.234781079249537     
  0.879993102573770       0.375937539017009     
  0.335387152965211       0.149828892718628     
 p           4   1.00000000000000     
   7.29650404814951       0.976586663156674     
   1.89187454507126       0.903722267303458     
  0.666944321108241       0.474049584615364     
  0.265522026741309       7.151606771501186E-002
 
           5 0
 s           4   1.00000000000000     
   51.0493630955799      -0.163120632101274     
   8.79112274068875      -0.199110245810007     
  0.706404222589298       0.318820477536558     
  0.269228134134116       0.127065041842404     
 p           4   1.00000000000000     
   5.82636561408000       0.737164515452096     
   1.51068960187200       0.682163716148503     
  0.532564832880000       0.357830539292537     
  0.212023236906000       5.398303027584788E-002
 
           6 0
 s           4   1.00000000000000     
   51.0493630955799      -0.163120632101274     
   8.79112274068875      -0.199110245810007     
  0.706404222589298       0.318820477536558     
  0.269228134134116       0.127065041842404     
 p           4   1.00000000000000     
   5.82636561408000       0.737164515452096     
   1.51068960187200       0.682163716148503     
  0.532564832880000       0.357830539292537     
  0.212023236906000       5.398303027584788E-002
 
           7 0
 s           4   1.00000000000000     
   69.1379619061966      -0.204787563700778     
   11.9061291327073      -0.249970231368273     
  0.956708277443407       0.400258802406396     
  0.364625204960737       0.159522066676936     
 p           4   1.00000000000000     
   8.21241932577816        1.13215567991868     
   2.12935769970981        1.04768407822548     
  0.750664482023609       0.549565082171590     
  0.298852465432831       8.290848659276662E-002
 
           8 0
 s           4   1.00000000000000     
   51.0493630955799      -0.163120632101274     
   8.79112274068875      -0.199110245810007     
  0.706404222589298       0.318820477536558     
  0.269228134134116       0.127065041842404     
 p           4   1.00000000000000     
   5.82636561408000       0.737164515452096     
   1.51068960187200       0.682163716148503     
  0.532564832880000       0.357830539292537     
  0.212023236906000       5.398303027584788E-002
 
           9 0
 s           4   1.00000000000000     
   51.0493630955799      -0.163120632101274     
   8.79112274068875      -0.199110245810007     
  0.706404222589298       0.318820477536558     
  0.269228134134116       0.127065041842404     
 p           4   1.00000000000000     
   5.82636561408000       0.737164515452096     
   1.51068960187200       0.682163716148503     
  0.532564832880000       0.357830539292537     
  0.212023236906000       5.398303027584788E-002
 
          10 0
 s           4   1.00000000000000     
   51.0493630955799      -0.163120632101274     
   8.79112274068875      -0.199110245810007     
  0.706404222589298       0.318820477536558     
  0.269228134134116       0.127065041842404     
 p           4   1.00000000000000     
   5.82636561408000       0.737164515452096     
   1.51068960187200       0.682163716148503     
  0.532564832880000       0.357830539292537     
  0.212023236906000       5.398303027584788E-002
 
          11 0
 s           4   1.00000000000000     
   51.0493630955799      -0.163120632101274     
   8.79112274068875      -0.199110245810007     
  0.706404222589298       0.318820477536558     
  0.269228134134116       0.127065041842404     
 p           4   1.00000000000000     
   5.82636561408000       0.737164515452096     
   1.51068960187200       0.682163716148503     
  0.532564832880000       0.357830539292537     
  0.212023236906000       5.398303027584788E-002
 
          12 0
 s           4   1.00000000000000     
   51.0493630955799      -0.163120632101274     
   8.79112274068875      -0.199110245810007     
  0.706404222589298       0.318820477536558     
  0.269228134134116       0.127065041842404     
 p           4   1.00000000000000     
   5.82636561408000       0.737164515452096     
   1.51068960187200       0.682163716148503     
  0.532564832880000       0.357830539292537     
  0.212023236906000       5.398303027584788E-002
 
          13 0
 s           4   1.00000000000000     
   51.0493630955799      -0.163120632101274     
   8.79112274068875      -0.199110245810007     
  0.706404222589298       0.318820477536558     
  0.269228134134116       0.127065041842404     
 p           4   1.00000000000000     
   5.82636561408000       0.737164515452096     
   1.51068960187200       0.682163716148503     
  0.532564832880000       0.357830539292537     
  0.212023236906000       5.398303027584788E-002
 
          14 0
 s           4   1.00000000000000     
   51.0493630955799      -0.163120632101274     
   8.79112274068875      -0.199110245810007     
  0.706404222589298       0.318820477536558     
  0.269228134134116       0.127065041842404     
 p           4   1.00000000000000     
   5.82636561408000       0.737164515452096     
   1.51068960187200       0.682163716148503     
  0.532564832880000       0.357830539292537     
  0.212023236906000       5.398303027584788E-002
 
          15 0
 s           4   1.00000000000000     
   51.0493630955799      -0.163120632101274     
   8.79112274068875      -0.199110245810007     
  0.706404222589298       0.318820477536558     
  0.269228134134116       0.127065041842404     
 p           4   1.00000000000000     
   5.82636561408000       0.737164515452096     
   1.51068960187200       0.682163716148503     
  0.532564832880000       0.357830539292537     
  0.212023236906000       5.398303027584788E-002
 
          16 0
 s           4   1.00000000000000     
   51.0493630955799      -0.163120632101274     
   8.79112274068875      -0.199110245810007     
  0.706404222589298       0.318820477536558     
  0.269228134134116       0.127065041842404     
 p           4   1.00000000000000     
   5.82636561408000       0.737164515452096     
   1.51068960187200       0.682163716148503     
  0.532564832880000       0.357830539292537     
  0.212023236906000       5.398303027584788E-002
 
          17 0
 s           4   1.00000000000000     
   51.0493630955799      -0.163120632101274     
   8.79112274068875      -0.199110245810007     
  0.706404222589298       0.318820477536558     
  0.269228134134116       0.127065041842404     
 p           4   1.00000000000000     
   5.82636561408000       0.737164515452096     
   1.51068960187200       0.682163716148503     
  0.532564832880000       0.357830539292537     
  0.212023236906000       5.398303027584788E-002
 
          18 0
 s           4   1.00000000000000     
   51.0493630955799      -0.163120632101274     
   8.79112274068875      -0.199110245810007     
  0.706404222589298       0.318820477536558     
  0.269228134134116       0.127065041842404     
 p           4   1.00000000000000     
   5.82636561408000       0.737164515452096     
   1.51068960187200       0.682163716148503     
  0.532564832880000       0.357830539292537     
  0.212023236906000       5.398303027584788E-002
 
          19 0
 s           4   1.00000000000000     
   51.0493630955799      -0.163120632101274     
   8.79112274068875      -0.199110245810007     
  0.706404222589298       0.318820477536558     
  0.269228134134116       0.127065041842404     
 p           4   1.00000000000000     
   5.82636561408000       0.737164515452096     
   1.51068960187200       0.682163716148503     
  0.532564832880000       0.357830539292537     
  0.212023236906000       5.398303027584788E-002
 
          20 0
 s           3   1.00000000000000     
   3.37022769753360       0.273591105889083     
  0.613891182214980       0.264605406538605     
  0.166142911484160       8.246594753408230E-002
 
          21 0
 s           3   1.00000000000000     
   3.37022769753360       0.273591105889083     
  0.613891182214980       0.264605406538605     
  0.166142911484160       8.246594753408230E-002
 
          22 0
 s           3   1.00000000000000     
   3.37022769753360       0.273591105889083     
  0.613891182214980       0.264605406538605     
  0.166142911484160       8.246594753408230E-002
 
          23 0
 s           3   1.00000000000000     
   3.37022769753360       0.273591105889083     
  0.613891182214980       0.264605406538605     
  0.166142911484160       8.246594753408230E-002
 
          24 0
 s           3   1.00000000000000     
   3.37022769753360       0.273591105889083     
  0.613891182214980       0.264605406538605     
  0.166142911484160       8.246594753408230E-002
 
          25 0
 s           3   1.00000000000000     
   3.37022769753360       0.273591105889083     
  0.613891182214980       0.264605406538605     
  0.166142911484160       8.246594753408230E-002
 
          26 0
 s           3   1.00000000000000     
   3.37022769753360       0.273591105889083     
  0.613891182214980       0.264605406538605     
  0.166142911484160       8.246594753408230E-002
 
          27 0
 s           3   1.00000000000000     
   3.37022769753360       0.273591105889083     
  0.613891182214980       0.264605406538605     
  0.166142911484160       8.246594753408230E-002
 
          28 0
 s           3   1.00000000000000     
   3.37022769753360       0.273591105889083     
  0.613891182214980       0.264605406538605     
  0.166142911484160       8.246594753408230E-002
 
          29 0
 s           3   1.00000000000000     
   3.37022769753360       0.273591105889083     
  0.613891182214980       0.264605406538605     
  0.166142911484160       8.246594753408230E-002
 
          30 0
 s           3   1.00000000000000     
   3.37022769753360       0.273591105889083     
  0.613891182214980       0.264605406538605     
  0.166142911484160       8.246594753408230E-002
 
          31 0
 s           3   1.00000000000000     
   3.37022769753360       0.273591105889083     
  0.613891182214980       0.264605406538605     
  0.166142911484160       8.246594753408230E-002
 
          32 0
 s           3   1.00000000000000     
   3.37022769753360       0.273591105889083     
  0.613891182214980       0.264605406538605     
  0.166142911484160       8.246594753408230E-002
 
          33 0
 s           3   1.00000000000000     
   3.37022769753360       0.273591105889083     
  0.613891182214980       0.264605406538605     
  0.166142911484160       8.246594753408230E-002
 
          34 0
 s           3   1.00000000000000     
   3.37022769753360       0.273591105889083     
  0.613891182214980       0.264605406538605     
  0.166142911484160       8.246594753408230E-002
 
          35 0
 s           3   1.00000000000000     
   3.37022769753360       0.273591105889083     
  0.613891182214980       0.264605406538605     
  0.166142911484160       8.246594753408230E-002
 
          36 0
 s           3   1.00000000000000     
   3.37022769753360       0.273591105889083     
  0.613891182214980       0.264605406538605     
  0.166142911484160       8.246594753408230E-002
 
          37 0
 s           3   1.00000000000000     
   3.37022769753360       0.273591105889083     
  0.613891182214980       0.264605406538605     
  0.166142911484160       8.246594753408230E-002
 
          38 0
 s           3   1.00000000000000     
   3.37022769753360       0.273591105889083     
  0.613891182214980       0.264605406538605     
  0.166142911484160       8.246594753408230E-002
 
          39 0
 s           3   1.00000000000000     
   3.37022769753360       0.273591105889083     
  0.613891182214980       0.264605406538605     
  0.166142911484160       8.246594753408230E-002
 
          40 0
 s           3   1.00000000000000     
   3.37022769753360       0.273591105889083     
  0.613891182214980       0.264605406538605     
  0.166142911484160       8.246594753408230E-002
 
          41 0
 s           3   1.00000000000000     
   3.37022769753360       0.273591105889083     
  0.613891182214980       0.264605406538605     
  0.166142911484160       8.246594753408230E-002
 
          42 0
 s           3   1.00000000000000     
   3.37022769753360       0.273591105889083     
  0.613891182214980       0.264605406538605     
  0.166142911484160       8.246594753408230E-002
 
          43 0
 s           3   1.00000000000000     
   3.37022769753360       0.273591105889083     
  0.613891182214980       0.264605406538605     
  0.166142911484160       8.246594753408230E-002
 
          44 0
 s           3   1.00000000000000     
   3.37022769753360       0.273591105889083     
  0.613891182214980       0.264605406538605     
  0.166142911484160       8.246594753408230E-002
 
          45 0
 s           3   1.00000000000000     
   3.37022769753360       0.273591105889083     
  0.613891182214980       0.264605406538605     
  0.166142911484160       8.246594753408230E-002
 
          46 0
 s           3   1.00000000000000     
   3.37022769753360       0.273591105889083     
  0.613891182214980       0.264605406538605     
  0.166142911484160       8.246594753408230E-002
 
          47 0
 s           3   1.00000000000000     
   3.37022769753360       0.273591105889083     
  0.613891182214980       0.264605406538605     
  0.166142911484160       8.246594753408230E-002
 
          48 0
 s           3   1.00000000000000     
   3.37022769753360       0.273591105889083     
  0.613891182214980       0.264605406538605     
  0.166142911484160       8.246594753408230E-002
 
[MO]
Sym=     1a
Ene=  -0.856756919622867     
Spin= Alpha
Occup=     2.00000000
           1  1.820392475618786E-002
           2  8.421038217572866E-003
           3  3.891344069461709E-003
           4  2.264975228173642E-002
           5  3.437862601383271E-002
           6  2.716482329839739E-002
           7 -9.604798043080278E-003
           8  1.110825663651824E-002
           9  0.138274686855943     
          10  9.721778929521199E-002
          11 -4.783496209428419E-003
          12 -2.733172579394714E-002
          13  0.474613721085576     
          14  6.713919418791892E-002
          15  1.044013671599891E-002
          16  6.431888611604931E-002
          17  0.216471638302601     
          18 -3.483245683500244E-002
          19 -0.122653580722553     
          20 -1.570217300164629E-002
          21  0.134154279896492     
          22 -2.597835213446190E-002
          23 -7.215760854120114E-002
          24  4.278593198786698E-002
          25  0.270625406652165     
          26 -8.535498196388602E-002
          27 -4.883038220292832E-004
          28 -1.226454683614081E-002
          29  0.134338300252413     
          30 -2.355285250852337E-002
          31  8.257221032622142E-002
          32  1.882331565647940E-002
          33  0.216426682491451     
          34 -3.081641555220026E-002
          35  0.113576162968661     
          36 -5.217757333190885E-002
          37  2.446696420138818E-004
          38  2.969198690940191E-003
          39 -3.243585954439372E-004
          40  2.737502907741960E-004
          41 -3.919946301923107E-004
          42  2.252175567901393E-004
          43  4.982180824902640E-006
          44 -3.418659910808521E-005
          45 -9.902848184889439E-005
          46 -5.533967239551402E-005
          47  5.050355353253259E-006
          48  1.783142568853134E-005
          49 -3.209765414967504E-005
          50 -2.046236967886199E-005
          51  1.072882230037402E-005
          52  7.764205168478017E-007
          53 -9.243980614562377E-005
          54 -5.925059199203345E-005
          55  4.841336330229010E-006
          56 -1.382670750380051E-005
          57 -4.939962245755325E-004
          58  6.525134647656653E-006
          59  2.644329898678117E-005
          60 -5.363757038402156E-005
          61 -3.220468936344750E-005
          62 -1.786410549163854E-005
          63 -7.881905790959521E-006
          64 -8.562598634744317E-006
          65 -8.720392286514189E-005
          66 -3.036702095298994E-005
          67 -1.883160178605347E-005
          68  3.481325959416994E-006
          69  1.530705789049031E-006
          70  4.794232000722798E-004
          71  9.447236078569158E-005
          72  2.157492858943367E-005
          73 -3.194016438672761E-005
          74 -1.716307963443877E-005
          75 -7.895007478129330E-006
          76  1.066522513473207E-005
          77 -1.689965672200931E-003
          78  2.286308650590684E-004
          79  7.013397580611434E-003
          80  2.487118537694573E-002
          81  2.572062098075689E-002
          82  9.354377543135949E-002
          83  4.014942199309088E-002
          84  3.421877648448309E-002
          85  1.936893470152908E-002
          86  8.852520239581845E-003
          87  8.862058138333958E-003
          88  1.943098771780545E-002
          89  3.430840295575091E-002
          90  4.006251822392284E-002
          91 -7.754184674402679E-005
          92 -4.750877893528740E-005
          93  3.817353516153377E-006
          94  1.612125779757800E-006
          95  4.872244605755846E-006
          96  4.345894569527552E-006
          97 -1.479169944823074E-005
          98 -7.177020059426285E-005
          99  1.784169256438848E-006
         100  4.385134031911297E-006
         101  8.045424792445950E-007
         102  3.363321943162561E-005
         103  2.303180439005696E-004
         104  1.863088540652729E-006
         105 -3.544318593884585E-006
Sym=     2a
Ene=  -0.846125824709469     
Spin= Alpha
Occup=     2.00000000
           1 -3.870761627055448E-002
           2 -5.936782396871467E-003
           3 -8.857075732324181E-003
           4 -4.139256643363888E-002
           5 -7.805801180757892E-002
           6 -4.431675568822232E-002
           7  1.976951415292156E-002
           8 -2.040558525005835E-002
           9 -0.206226925388505     
          10 -9.000663815558717E-002
          11  3.772400746202578E-003
          12  4.803273740437308E-002
          13 -0.286210976515314     
          14  0.141215127266031     
          15 -1.651104823169287E-002
          16 -3.482172263673561E-002
          17 -2.490070599087126E-002
          18  9.061965506926674E-002
          19  1.852068871851235E-002
          20 -7.201124210172277E-003
          21  0.176366576930294     
          22  4.854841602521163E-002
          23 -0.114469101150656     
          24  5.374558203782848E-002
          25  0.553069177489333     
          26 -9.296025228949323E-002
          27 -3.104805206993134E-003
          28 -2.733126376718090E-002
          29  0.178650079416158     
          30  5.090364593722903E-002
          31  0.124023300490964     
          32  1.715626978032563E-002
          33 -1.655794414696954E-002
          34  8.693265673896149E-002
          35 -2.136745783337181E-002
          36 -2.578255595808502E-003
          37 -6.085688798761358E-003
          38 -9.327932443402404E-003
          39  7.074806843899841E-004
          40 -8.939868195760145E-004
          41 -5.872471058211622E-004
          42 -1.509751254954361E-003
          43  4.867638108625851E-004
          44  6.249635507746248E-004
          45  2.030876175048234E-004
          46  1.802606026528366E-005
          47  6.256890301769385E-006
          48 -1.227912276688243E-005
          49  8.531890214964610E-005
          50  3.331046267100918E-005
          51 -2.224715287058876E-005
          52 -2.320138289947505E-006
          53  2.157910159437262E-004
          54  7.138281226029078E-005
          55 -3.117967991890662E-006
          56  1.372245180220931E-005
          57  2.636209507315050E-004
          58 -7.026395104096412E-004
          59  2.106054942498946E-004
          60 -3.565374184569568E-004
          61  8.364857354515895E-005
          62  2.704739310818725E-005
          63  1.633575872350036E-005
          64  1.686301175188330E-005
          65  1.758760735647240E-004
          66 -2.790695168306996E-005
          67  1.981516542237008E-006
          68 -9.532300508427066E-006
          69 -1.227019934780824E-003
          70 -1.821953456168117E-003
          71 -1.001084392754970E-003
          72 -1.143014811570840E-004
          73  7.255841783038942E-005
          74  1.406939666604020E-005
          75  1.328705609438264E-005
          76 -1.821157462830822E-005
          77  4.025950976033678E-004
          78 -3.643661413843895E-003
          79 -1.595843849248964E-002
          80 -4.188771361402304E-002
          81 -3.949161497076078E-002
          82 -7.190659376352450E-002
          83 -6.557850395044391E-003
          84 -1.600933415208922E-002
          85  1.920520510961808E-002
          86  1.496638173290593E-002
          87  1.528706043947461E-002
          88  1.983550153869468E-002
          89 -1.345922470624682E-002
          90 -4.954983388898503E-003
          91 -5.203933090299465E-004
          92 -1.230472835992534E-004
          93 -1.621357475815209E-006
          94 -4.377329772505686E-006
          95 -6.917780084796623E-006
          96 -7.319191105028042E-006
          97 -5.619982780025546E-005
          98 -8.192116402975845E-006
          99 -4.248081738483680E-006
         100 -4.956946067120608E-006
         101  3.719112721430691E-006
         102 -3.407875554093845E-004
         103 -9.863596550283332E-004
         104 -3.792102734100556E-006
         105  1.005493864848583E-005
Sym=     3a
Ene=  -0.823070900990539     
Spin= Alpha
Occup=     2.00000000
           1  0.126336964289752     
           2 -1.257785856289425E-002
           3  3.210001581016673E-002
           4  0.101982509701809     
           5  0.236090990884072     
           6  8.118133046957159E-002
           7 -4.696414965851384E-002
           8  3.089647084166927E-002
           9  0.307780362832001     
          10  1.931462162394706E-002
          11  2.551141741896196E-002
          12 -0.100159462370285     
          13 -4.910425623865304E-002
          14 -0.341076113605174     
          15  0.111456346791660     
          16 -6.744924089794573E-002
          17 -8.980637154386466E-002
          18 -2.920142030112546E-002
          19  6.172820993858395E-002
          20 -4.707311555066182E-003
          21  4.306091946388217E-002
          22  8.283949072214811E-002
          23 -5.038058596881465E-002
          24  1.213137482497147E-002
          25  0.333740121356366     
          26  2.545947560091280E-002
          27  1.867125854257505E-002
          28 -2.088228386034318E-002
          29 -3.045928018089171E-002
          30  0.117815242279282     
          31  4.551714675167246E-002
          32 -1.914393028115223E-002
          33 -0.267322587303892     
          34 -5.982816400503543E-004
          35 -7.463169688271569E-002
          36  4.490511728961762E-002
          37  4.158702134320105E-002
          38  3.775330579192950E-002
          39 -1.236603436515259E-003
          40  1.329791320672375E-003
          41  7.638696351104428E-003
          42  8.017757410231918E-003
          43 -3.275810013999619E-003
          44 -4.749850522727115E-003
          45 -4.989802518349933E-004
          46  4.943382977892338E-004
          47 -1.226836296680733E-004
          48 -1.443512692513593E-004
          49 -3.261028617490937E-004
          50 -4.992825463230749E-006
          51  5.535741785606179E-005
          52  5.496280078013869E-006
          53 -6.364194064717251E-004
          54  2.432491779198787E-004
          55 -5.992671942123689E-005
          56  8.995288291514923E-005
          57  4.438046291153192E-003
          58  6.031092159958624E-003
          59 -2.139521071062349E-003
          60  3.747011264323090E-003
          61 -2.933990511002811E-004
          62  3.583143623845783E-005
          63 -3.733865057098899E-005
          64 -3.199730749812241E-005
          65 -3.524489687069401E-004
          66  6.590482248681418E-004
          67  2.539132975474763E-004
          68  1.084708718299778E-005
          69  9.346778636256103E-003
          70  8.344942766696214E-003
          71  6.743856360126252E-003
          72  6.808724563032638E-005
          73 -2.202073631670798E-004
          74  1.113403662758792E-004
          75 -1.803357928710550E-005
          76  1.711640712921720E-005
          77  1.021545134451420E-002
          78  1.924430046698632E-002
          79  5.426513294586365E-002