[Molden Format]
[Title]
[Atoms] AU
C      1     6  0.79223533900490E+01  0.16629840872446E+01 -0.21788022642522E+01
C      2     6  0.61497317399228E+01  0.77069216784135E+00 -0.67740208720439E-01
C      3     6  0.51454917599509E+01  0.30832073959005E+01  0.13550653058290E+01
C      4     6  0.76356799435131E+01 -0.91688134255392E+00  0.17529893139163E+01
C      5     6  0.39968954420484E+01 -0.79863397685573E+00 -0.12844062779309E+01
N      6     7  0.22630370630728E+01  0.64045326164436E+00 -0.29007824624684E+01
C      7     6  0.22803869193803E+01 -0.21484228399184E+01  0.67633334743114E+00
N      8     7 -0.15967815206464E+00 -0.26109540145935E+01 -0.59438336240898E+00
C      9     6 -0.24774513797122E+01 -0.21035368770406E+01  0.92577730555849E+00
C     10     6 -0.48317443043352E+01 -0.27914098113282E+01 -0.54070439696902E+00
C     11     6 -0.49387392452405E+01 -0.27413867123853E+01 -0.31659875461063E+01
C     12     6 -0.71554731253725E+01 -0.33376195336980E+01 -0.44169567696405E+01
C     13     6 -0.92994043835552E+01 -0.39767171560513E+01 -0.30487543994586E+01
Cl    14    17 -0.12052339825881E+02 -0.47214474033698E+01 -0.46063933256233E+01
C     15     6 -0.92203170108958E+01 -0.40166313869459E+01 -0.42533351831801E+00
C     16     6 -0.69967947275301E+01 -0.34294222964481E+01  0.80701153265084E+00
C     17     6 -0.24807459498199E+01  0.65129297149617E+00  0.16934421641441E+01
C     18     6 -0.28896248826663E+01  0.25319447810590E+01 -0.98085958825574E-01
C     19     6 -0.27831161458211E+01  0.50520431701718E+01  0.57474086046550E+00
C     20     6 -0.22683497726864E+01  0.57185562272124E+01  0.30630277813686E+01
Cl    21    17 -0.20965452029911E+01  0.88561719612980E+01  0.38972565668545E+01
C     22     6 -0.19015139080137E+01  0.38575979784234E+01  0.48763815472861E+01
C     23     6 -0.20085253326222E+01  0.13399751019131E+01  0.41844533033791E+01
H     24     1  0.94709423842450E+01  0.27471524584988E+01 -0.13810380764767E+01
H     25     1  0.69450799137517E+01  0.28700708247492E+01 -0.35258417809215E+01
H     26     1  0.87222521484444E+01  0.61975273033969E-01 -0.31888839974794E+01
H     27     1  0.43022918410399E+01  0.44639346984839E+01  0.85211543029691E-01
H     28     1  0.67119797547531E+01  0.40129041324485E+01  0.23004632881419E+01
H     29     1  0.37618401043452E+01  0.25845431119269E+01  0.27902285609686E+01
H     30     1  0.65371852051974E+01 -0.13714224603320E+01  0.34266105769733E+01
H     31     1  0.93362365694869E+01  0.56047463919573E-01  0.23637603599429E+01
H     32     1  0.82053364070037E+01 -0.26646065327147E+01  0.83551364318544E+00
H     33     1  0.48729201500537E+01 -0.22493623417031E+01 -0.24743389733557E+01
H     34     1  0.19096720866699E+01  0.23717530665238E+01 -0.21497635587148E+01
H     35     1  0.29506310947489E+01  0.87326952204673E+00 -0.46699301641493E+01
H     36     1  0.19394530069927E+01 -0.89864778100417E+00  0.22767301094934E+01
H     37     1  0.31346061711658E+01 -0.38925324616899E+01  0.13490354281154E+01
H     38     1  0.97353226421060E-01 -0.11818457413889E+01 -0.21091612342295E+01
H     39     1 -0.26667342606919E+00 -0.43801485700345E+01 -0.13555119846182E+01
H     40     1 -0.23887425926862E+01 -0.32771494039964E+01  0.26306605795956E+01
H     41     1 -0.33093826731680E+01 -0.22421864361745E+01 -0.42915170532859E+01
H     42     1 -0.72245558429570E+01 -0.33049185196597E+01 -0.64524671807847E+01
H     43     1 -0.10886928460916E+02 -0.45102661338240E+01  0.63569314799591E+00
H     44     1 -0.69426544399868E+01 -0.34592733525690E+01  0.28458035441254E+01
H     45     1 -0.33339956088362E+01  0.20293187370790E+01 -0.20245682772378E+01
H     46     1 -0.31089802401438E+01  0.65057702547918E+01 -0.81455192347234E+00
H     47     1 -0.15355202302367E+01  0.43804814460500E+01  0.68104742976415E+01
H     48     1 -0.17335594579375E+01 -0.96717007417591E-01  0.56092405873630E+01
[GTO]
           1 0
 s           4   1.00000000000000     
   51.0493630955799      -0.163120632101274     
   8.79112274068875      -0.199110245810007     
  0.706404222589298       0.318820477536558     
  0.269228134134116       0.127065041842404     
 p           4   1.00000000000000     
   5.82636561408000       0.737164515452096     
   1.51068960187200       0.682163716148503     
  0.532564832880000       0.357830539292537     
  0.212023236906000       5.398303027584788E-002
 
           2 0
 s           4   1.00000000000000     
   51.0493630955799      -0.163120632101274     
   8.79112274068875      -0.199110245810007     
  0.706404222589298       0.318820477536558     
  0.269228134134116       0.127065041842404     
 p           4   1.00000000000000     
   5.82636561408000       0.737164515452096     
   1.51068960187200       0.682163716148503     
  0.532564832880000       0.357830539292537     
  0.212023236906000       5.398303027584788E-002
 
           3 0
 s           4   1.00000000000000     
   51.0493630955799      -0.163120632101274     
   8.79112274068875      -0.199110245810007     
  0.706404222589298       0.318820477536558     
  0.269228134134116       0.127065041842404     
 p           4   1.00000000000000     
   5.82636561408000       0.737164515452096     
   1.51068960187200       0.682163716148503     
  0.532564832880000       0.357830539292537     
  0.212023236906000       5.398303027584788E-002
 
           4 0
 s           4   1.00000000000000     
   51.0493630955799      -0.163120632101274     
   8.79112274068875      -0.199110245810007     
  0.706404222589298       0.318820477536558     
  0.269228134134116       0.127065041842404     
 p           4   1.00000000000000     
   5.82636561408000       0.737164515452096     
   1.51068960187200       0.682163716148503     
  0.532564832880000       0.357830539292537     
  0.212023236906000       5.398303027584788E-002
 
           5 0
 s           4   1.00000000000000     
   51.0493630955799      -0.163120632101274     
   8.79112274068875      -0.199110245810007     
  0.706404222589298       0.318820477536558     
  0.269228134134116       0.127065041842404     
 p           4   1.00000000000000     
   5.82636561408000       0.737164515452096     
   1.51068960187200       0.682163716148503     
  0.532564832880000       0.357830539292537     
  0.212023236906000       5.398303027584788E-002
 
           6 0
 s           4   1.00000000000000     
   63.5940244669410      -0.192343884147216     
   10.9514172315237      -0.234781079249537     
  0.879993102573770       0.375937539017009     
  0.335387152965211       0.149828892718628     
 p           4   1.00000000000000     
   7.29650404814951       0.976586663156674     
   1.89187454507126       0.903722267303458     
  0.666944321108241       0.474049584615364     
  0.265522026741309       7.151606771501186E-002
 
           7 0
 s           4   1.00000000000000     
   51.0493630955799      -0.163120632101274     
   8.79112274068875      -0.199110245810007     
  0.706404222589298       0.318820477536558     
  0.269228134134116       0.127065041842404     
 p           4   1.00000000000000     
   5.82636561408000       0.737164515452096     
   1.51068960187200       0.682163716148503     
  0.532564832880000       0.357830539292537     
  0.212023236906000       5.398303027584788E-002
 
           8 0
 s           4   1.00000000000000     
   63.5940244669410      -0.192343884147216     
   10.9514172315237      -0.234781079249537     
  0.879993102573770       0.375937539017009     
  0.335387152965211       0.149828892718628     
 p           4   1.00000000000000     
   7.29650404814951       0.976586663156674     
   1.89187454507126       0.903722267303458     
  0.666944321108241       0.474049584615364     
  0.265522026741309       7.151606771501186E-002
 
           9 0
 s           4   1.00000000000000     
   51.0493630955799      -0.163120632101274     
   8.79112274068875      -0.199110245810007     
  0.706404222589298       0.318820477536558     
  0.269228134134116       0.127065041842404     
 p           4   1.00000000000000     
   5.82636561408000       0.737164515452096     
   1.51068960187200       0.682163716148503     
  0.532564832880000       0.357830539292537     
  0.212023236906000       5.398303027584788E-002
 
          10 0
 s           4   1.00000000000000     
   51.0493630955799      -0.163120632101274     
   8.79112274068875      -0.199110245810007     
  0.706404222589298       0.318820477536558     
  0.269228134134116       0.127065041842404     
 p           4   1.00000000000000     
   5.82636561408000       0.737164515452096     
   1.51068960187200       0.682163716148503     
  0.532564832880000       0.357830539292537     
  0.212023236906000       5.398303027584788E-002
 
          11 0
 s           4   1.00000000000000     
   51.0493630955799      -0.163120632101274     
   8.79112274068875      -0.199110245810007     
  0.706404222589298       0.318820477536558     
  0.269228134134116       0.127065041842404     
 p           4   1.00000000000000     
   5.82636561408000       0.737164515452096     
   1.51068960187200       0.682163716148503     
  0.532564832880000       0.357830539292537     
  0.212023236906000       5.398303027584788E-002
 
          12 0
 s           4   1.00000000000000     
   51.0493630955799      -0.163120632101274     
   8.79112274068875      -0.199110245810007     
  0.706404222589298       0.318820477536558     
  0.269228134134116       0.127065041842404     
 p           4   1.00000000000000     
   5.82636561408000       0.737164515452096     
   1.51068960187200       0.682163716148503     
  0.532564832880000       0.357830539292537     
  0.212023236906000       5.398303027584788E-002
 
          13 0
 s           4   1.00000000000000     
   51.0493630955799      -0.163120632101274     
   8.79112274068875      -0.199110245810007     
  0.706404222589298       0.318820477536558     
  0.269228134134116       0.127065041842404     
 p           4   1.00000000000000     
   5.82636561408000       0.737164515452096     
   1.51068960187200       0.682163716148503     
  0.532564832880000       0.357830539292537     
  0.212023236906000       5.398303027584788E-002
 
          14 0
 s           4   1.00000000000000     
   9.34674866189868      -0.125552785052236     
   2.63274953955161      -0.254029831967196     
  0.472092932487140       0.305184566430756     
  0.232271649766237       8.559661830788402E-002
 p           4   1.00000000000000     
   8.96653868620652      -0.317209215069455     
  0.926601749794952       0.357031126383567     
  0.418792332287928       0.280771537007085     
  0.202453454537036       4.152131922185704E-002
 d           3   1.00000000000000     
   3.20597745654841        2.13231494102881     
   1.00523897559031       0.971375176087545     
  0.391565355448865       0.129419082352652     
 
          15 0
 s           4   1.00000000000000     
   51.0493630955799      -0.163120632101274     
   8.79112274068875      -0.199110245810007     
  0.706404222589298       0.318820477536558     
  0.269228134134116       0.127065041842404     
 p           4   1.00000000000000     
   5.82636561408000       0.737164515452096     
   1.51068960187200       0.682163716148503     
  0.532564832880000       0.357830539292537     
  0.212023236906000       5.398303027584788E-002
 
          16 0
 s           4   1.00000000000000     
   51.0493630955799      -0.163120632101274     
   8.79112274068875      -0.199110245810007     
  0.706404222589298       0.318820477536558     
  0.269228134134116       0.127065041842404     
 p           4   1.00000000000000     
   5.82636561408000       0.737164515452096     
   1.51068960187200       0.682163716148503     
  0.532564832880000       0.357830539292537     
  0.212023236906000       5.398303027584788E-002
 
          17 0
 s           4   1.00000000000000     
   51.0493630955799      -0.163120632101274     
   8.79112274068875      -0.199110245810007     
  0.706404222589298       0.318820477536558     
  0.269228134134116       0.127065041842404     
 p           4   1.00000000000000     
   5.82636561408000       0.737164515452096     
   1.51068960187200       0.682163716148503     
  0.532564832880000       0.357830539292537     
  0.212023236906000       5.398303027584788E-002
 
          18 0
 s           4   1.00000000000000     
   51.0493630955799      -0.163120632101274     
   8.79112274068875      -0.199110245810007     
  0.706404222589298       0.318820477536558     
  0.269228134134116       0.127065041842404     
 p           4   1.00000000000000     
   5.82636561408000       0.737164515452096     
   1.51068960187200       0.682163716148503     
  0.532564832880000       0.357830539292537     
  0.212023236906000       5.398303027584788E-002
 
          19 0
 s           4   1.00000000000000     
   51.0493630955799      -0.163120632101274     
   8.79112274068875      -0.199110245810007     
  0.706404222589298       0.318820477536558     
  0.269228134134116       0.127065041842404     
 p           4   1.00000000000000     
   5.82636561408000       0.737164515452096     
   1.51068960187200       0.682163716148503     
  0.532564832880000       0.357830539292537     
  0.212023236906000       5.398303027584788E-002
 
          20 0
 s           4   1.00000000000000     
   51.0493630955799      -0.163120632101274     
   8.79112274068875      -0.199110245810007     
  0.706404222589298       0.318820477536558     
  0.269228134134116       0.127065041842404     
 p           4   1.00000000000000     
   5.82636561408000       0.737164515452096     
   1.51068960187200       0.682163716148503     
  0.532564832880000       0.357830539292537     
  0.212023236906000       5.398303027584788E-002
 
          21 0
 s           4   1.00000000000000     
   9.34674866189868      -0.125552785052236     
   2.63274953955161      -0.254029831967196     
  0.472092932487140       0.305184566430756     
  0.232271649766237       8.559661830788402E-002
 p           4   1.00000000000000     
   8.96653868620652      -0.317209215069455     
  0.926601749794952       0.357031126383567     
  0.418792332287928       0.280771537007085     
  0.202453454537036       4.152131922185704E-002
 d           3   1.00000000000000     
   3.20597745654841        2.13231494102881     
   1.00523897559031       0.971375176087545     
  0.391565355448865       0.129419082352652     
 
          22 0
 s           4   1.00000000000000     
   51.0493630955799      -0.163120632101274     
   8.79112274068875      -0.199110245810007     
  0.706404222589298       0.318820477536558     
  0.269228134134116       0.127065041842404     
 p           4   1.00000000000000     
   5.82636561408000       0.737164515452096     
   1.51068960187200       0.682163716148503     
  0.532564832880000       0.357830539292537     
  0.212023236906000       5.398303027584788E-002
 
          23 0
 s           4   1.00000000000000     
   51.0493630955799      -0.163120632101274     
   8.79112274068875      -0.199110245810007     
  0.706404222589298       0.318820477536558     
  0.269228134134116       0.127065041842404     
 p           4   1.00000000000000     
   5.82636561408000       0.737164515452096     
   1.51068960187200       0.682163716148503     
  0.532564832880000       0.357830539292537     
  0.212023236906000       5.398303027584788E-002
 
          24 0
 s           3   1.00000000000000     
   3.37022769753360       0.273591105889083     
  0.613891182214980       0.264605406538605     
  0.166142911484160       8.246594753408230E-002
 
          25 0
 s           3   1.00000000000000     
   3.37022769753360       0.273591105889083     
  0.613891182214980       0.264605406538605     
  0.166142911484160       8.246594753408230E-002
 
          26 0
 s           3   1.00000000000000     
   3.37022769753360       0.273591105889083     
  0.613891182214980       0.264605406538605     
  0.166142911484160       8.246594753408230E-002
 
          27 0
 s           3   1.00000000000000     
   3.37022769753360       0.273591105889083     
  0.613891182214980       0.264605406538605     
  0.166142911484160       8.246594753408230E-002
 
          28 0
 s           3   1.00000000000000     
   3.37022769753360       0.273591105889083     
  0.613891182214980       0.264605406538605     
  0.166142911484160       8.246594753408230E-002
 
          29 0
 s           3   1.00000000000000     
   3.37022769753360       0.273591105889083     
  0.613891182214980       0.264605406538605     
  0.166142911484160       8.246594753408230E-002
 
          30 0
 s           3   1.00000000000000     
   3.37022769753360       0.273591105889083     
  0.613891182214980       0.264605406538605     
  0.166142911484160       8.246594753408230E-002
 
          31 0
 s           3   1.00000000000000     
   3.37022769753360       0.273591105889083     
  0.613891182214980       0.264605406538605     
  0.166142911484160       8.246594753408230E-002
 
          32 0
 s           3   1.00000000000000     
   3.37022769753360       0.273591105889083     
  0.613891182214980       0.264605406538605     
  0.166142911484160       8.246594753408230E-002
 
          33 0
 s           3   1.00000000000000     
   3.37022769753360       0.273591105889083     
  0.613891182214980       0.264605406538605     
  0.166142911484160       8.246594753408230E-002
 
          34 0
 s           3   1.00000000000000     
   3.37022769753360       0.273591105889083     
  0.613891182214980       0.264605406538605     
  0.166142911484160       8.246594753408230E-002
 
          35 0
 s           3   1.00000000000000     
   3.37022769753360       0.273591105889083     
  0.613891182214980       0.264605406538605     
  0.166142911484160       8.246594753408230E-002
 
          36 0
 s           3   1.00000000000000     
   3.37022769753360       0.273591105889083     
  0.613891182214980       0.264605406538605     
  0.166142911484160       8.246594753408230E-002
 
          37 0
 s           3   1.00000000000000     
   3.37022769753360       0.273591105889083     
  0.613891182214980       0.264605406538605     
  0.166142911484160       8.246594753408230E-002
 
          38 0
 s           3   1.00000000000000     
   3.37022769753360       0.273591105889083     
  0.613891182214980       0.264605406538605     
  0.166142911484160       8.246594753408230E-002
 
          39 0
 s           3   1.00000000000000     
   3.37022769753360       0.273591105889083     
  0.613891182214980       0.264605406538605     
  0.166142911484160       8.246594753408230E-002
 
          40 0
 s           3   1.00000000000000     
   3.37022769753360       0.273591105889083     
  0.613891182214980       0.264605406538605     
  0.166142911484160       8.246594753408230E-002
 
          41 0
 s           3   1.00000000000000     
   3.37022769753360       0.273591105889083     
  0.613891182214980       0.264605406538605     
  0.166142911484160       8.246594753408230E-002
 
          42 0
 s           3   1.00000000000000     
   3.37022769753360       0.273591105889083     
  0.613891182214980       0.264605406538605     
  0.166142911484160       8.246594753408230E-002
 
          43 0
 s           3   1.00000000000000     
   3.37022769753360       0.273591105889083     
  0.613891182214980       0.264605406538605     
  0.166142911484160       8.246594753408230E-002
 
          44 0
 s           3   1.00000000000000     
   3.37022769753360       0.273591105889083     
  0.613891182214980       0.264605406538605     
  0.166142911484160       8.246594753408230E-002
 
          45 0
 s           3   1.00000000000000     
   3.37022769753360       0.273591105889083     
  0.613891182214980       0.264605406538605     
  0.166142911484160       8.246594753408230E-002
 
          46 0
 s           3   1.00000000000000     
   3.37022769753360       0.273591105889083     
  0.613891182214980       0.264605406538605     
  0.166142911484160       8.246594753408230E-002
 
          47 0
 s           3   1.00000000000000     
   3.37022769753360       0.273591105889083     
  0.613891182214980       0.264605406538605     
  0.166142911484160       8.246594753408230E-002
 
          48 0
 s           3   1.00000000000000     
   3.37022769753360       0.273591105889083     
  0.613891182214980       0.264605406538605     
  0.166142911484160       8.246594753408230E-002
 
[MO]
Sym=     1a
Ene=   -1.14912713634534     
Spin= Alpha
Occup=     2.00000000
           1 -1.454062409252488E-007
           2  3.266209252767388E-007
           3 -2.166821196172395E-007
           4 -3.543146293220651E-007
           5 -1.109180857118154E-006
           6  4.060470782966123E-007
           7 -1.655325377471575E-006
           8 -6.942945658999834E-007
           9 -1.027239406677683E-005
          10  7.952419327882079E-006
          11 -4.764685867297922E-006
          12  1.909492955790708E-006
          13 -1.088578649836971E-007
          14  1.118830092886518E-007
          15 -2.346432932541289E-007
          16  5.616476061895858E-008
          17  9.846884939043213E-007
          18 -9.571822966214599E-007
          19  2.394555079960385E-007
          20 -6.894854102548483E-008
          21  4.996227750470183E-006
          22 -9.023688252908268E-007
          23  1.786447689055889E-006
          24  8.364045433417165E-007
          25  2.917094055843599E-006
          26  1.250294805585015E-006
          27  5.472632906701047E-007
          28  1.439280470334498E-006
          29 -1.673000143205297E-006
          30  3.355487174637967E-006
          31 -2.080496124741865E-006
          32 -2.337566024508949E-006
          33 -3.374417356676692E-005
          34  1.393484847260359E-006
          35 -5.719903117854209E-005
          36 -1.278833850352732E-005
          37 -4.103098253336642E-006
          38 -6.462686273634570E-006
          39 -6.367857317435857E-006
          40 -4.827275379846442E-006
          41  5.429692174474221E-007
          42 -5.083450932436539E-008
          43  2.047645499170098E-006
          44 -1.148328744301962E-006
          45 -7.061929343732750E-008
          46 -7.884887482957372E-008
          47  1.681147946259768E-007
          48 -3.967358260947585E-008
          49 -2.376711767602863E-008
          50 -5.958851346354134E-008
          51 -3.041654259478891E-009
          52 -4.788169460926493E-008
          53  2.273741879496767E-007
          54 -1.447249876899670E-009
          55 -1.673807763721699E-009
          56 -2.055939563809912E-009
          57 -2.843249045785442E-009
          58  2.497422919639485E-009
          59  3.458261261459576E-010
          60 -3.770330143694550E-009
          61 -4.599683114761773E-009
          62 -1.790650501584639E-009
          63 -1.237382677651390E-007
          64 -2.078522092964606E-007
          65 -6.802423993481119E-009
          66 -3.996135795668721E-008
          67 -3.411157468535503E-007
          68 -1.150519459703275E-006
          69 -6.376859736763464E-007
          70  6.124677380601658E-007
          71 -2.267380537878941E-004
          72 -1.388306086288363E-005
          73 -4.862254839453780E-004
          74 -1.326445413514119E-004
          75 -6.440225837235301E-004
          76 -1.129298560910465E-004
          77 -8.814931994397891E-004
          78 -6.819576152468255E-004
          79 -2.981372786769225E-003
          80 -6.568565844835383E-004
          81 -9.622838442070733E-004
          82 -3.192505884344180E-003
          83 -4.090629907025019E-002
          84 -3.955417091152590E-003
          85 -6.056355031171255E-002
          86 -1.586716603748996E-002
          87 -0.975482012498653     
          88 -5.432002181006329E-003
          89  1.954763357879434E-002
          90  8.136758470099424E-003
          91 -2.343666785258605E-003
          92  4.535616634445646E-003
          93 -2.191949849187042E-003
          94  7.788411543060816E-004
          95  1.954505673531148E-004
          96  2.064299873973715E-003
          97 -2.972781920950126E-003
          98  4.630153194166201E-004
          99 -2.425346267584427E-003
         100  2.298848939254207E-003
         101 -6.482759753823517E-004
         102  5.659943610492563E-005
         103 -1.114927953073402E-003
         104  1.415052986213596E-004
         105 -2.723840681953735E-007
         106 -6.028944223451405E-007
         107 -6.840692637552434E-008
         108  3.816572011531534E-005
         109 -1.772877825827115E-006
         110  1.183010264843921E-005
         111 -4.675687030477944E-009
         112 -1.141829111797510E-007
         113 -6.428192064530847E-008
         114  2.303984861324269E-007
         115 -2.340883406807975E-005
         116  1.712783229239376E-006
         117 -1.796307181249474E-005
         118  9.876156648699398E-007
         119 -6.828701681970217E-006
         120 -1.661141150641237E-006
         121 -2.401797585459491E-005
         122  2.862894878552880E-006
         123 -9.738314545825489E-010
         124 -6.050440436268760E-008
         125 -1.016930979844928E-006
         126 -3.597120498164018E-004
         127  3.469520289308277E-003
         128  3.423294109728359E-003
         129 -3.598403653561599E-004
Sym=     2a
Ene=   -1.14027623102258     
Spin= Alpha
Occup=     2.00000000
           1  9.505366058650551E-010
           2  2.137290924184104E-009
           3  1.382293493386111E-009
           4  9.877531807348620E-010
           5  3.583499411832865E-009
           6 -4.277349950352351E-009
           7 -2.325257131007494E-009
           8  4.007404383581827E-009
           9  2.163081830418778E-009
          10 -3.347808528322999E-010
          11 -3.652804256558410E-009
          12  2.432627908623473E-009
          13 -1.043236324875606E-010
          14 -4.597513899190302E-010
          15  1.514279291947909E-009
          16 -2.071395079661797E-010
          17  2.987784289330043E-008
          18 -9.262635935518955E-008
          19 -2.927259431497347E-008
          20 -1.957164684817904E-008
          21  3.086726376622236E-007
          22 -4.796560739891728E-007
          23 -2.757913027686430E-007
          24 -7.537763251231882E-008
          25  2.177166572562062E-007
          26  3.727111421947337E-007
          27 -1.807665609309923E-007
          28 -1.490861187863774E-007
          29 -1.265438067298011E-006
          30  3.601770160691145E-006
          31 -1.006803975537404E-006
          32 -1.571113726214267E-006
          33 -3.273398340077524E-005
          34  4.776510320194840E-005
          35  1.225230437081779E-005
          36  3.177710030703516E-005
          37 -2.292459745192619E-004
          38  4.356390105862996E-004
          39  1.150520023768941E-004
          40  2.408282076457156E-004
          41 -6.462610163221550E-004
          42  1.100595617579517E-003
          43  3.062469735914958E-004
          44  1.057866159453788E-004
          45 -2.962165034967078E-003
          46  2.795949740493657E-003
          47  8.271692271108130E-004
          48 -1.700251434914523E-003
          49 -4.085489348848206E-002
          50  5.327369146020333E-002
          51  1.447533771210284E-002
          52  3.044539230296782E-002
          53 -0.975581508518835     
          54 -1.527209944527734E-002
          55 -3.547179198503927E-003
          56 -5.900213041269190E-003
          57  2.896632851624713E-003
          58 -1.992792745862494E-003
          59 -9.038401057622192E-004
          60  1.669868953313506E-003
          61  3.780061072495121E-003
          62  1.048386153105330E-003
          63 -3.025113834017022E-003
          64  1.671378008035645E-004
          65 -3.604216082476151E-005
          66  3.503022933965669E-003
          67 -6.672619933981008E-004
          68  7.006706364250331E-004
          69  1.694220176275748E-004
          70  8.936914656385179E-004
          71 -3.670071540738113E-006
          72  3.064561750382510E-006
          73  8.065566771304339E-006
          74  3.727930451730690E-006
          75  1.082583381831428E-006
          76  3.247326276331076E-007
          77  1.961920575453938E-006
          78 -1.776748309841751E-006
          79  9.828504319362458E-009
          80 -9.007428891719499E-008
          81  9.859553606119732E-009
          82 -1.591223051024821E-007
          83 -3.272632522254026E-008
          84 -7.092342499629255E-009
          85  4.547289288583351E-008
          86 -2.196871170161515E-009
          87 -2.439718441932715E-007
          88 -6.129524886589293E-010
          89  9.982325413677359E-009
          90  3.606355065087781E-009
          91  2.040566990856862E-009
          92 -3.111232244698507E-009
          93  1.070665253841645E-009
          94 -5.601978802793917E-010
          95 -4.566364573583757E-010
          96 -4.128551311678745E-010
          97 -1.143659324404003E-007
          98  1.093381771740344E-008
          99  1.737367705717365E-007
         100  1.033495286794716E-007
         101 -4.818045061432537E-007
         102 -1.003693929522011E-007
         103  7.584181103872832E-008
         104  1.041883416663000E-006
         105  6.185406739632136E-010
         106 -1.192193497201562E-008
         107 -2.535545879421088E-009
         108 -1.246492906831252E-008
         109  8.495637825170118E-010
         110  7.683176049495172E-009
         111  7.176534955245172E-009
         112 -1.794914416030295E-010
         113 -3.658560535458031E-009
         114  8.208000138278723E-008
         115  3.095570501626104E-007
         116  4.687538304455117E-007
         117 -6.055929617161269E-007
         118  1.382423418378958E-007
         119 -1.085770171938723E-006
         120 -8.299841016994783E-006
         121 -2.417714816362092E-005