[Molden Format]
[Title]
[Atoms] AU
C      1     6  0.50949544306736E+01  0.24473901345168E+01  0.22666315698710E+01
N      2     7  0.38655900663842E+01  0.59911489542304E+00  0.61080424246113E+00
C      3     6  0.55618907464952E+01 -0.20499622907504E+00 -0.14298408843499E+01
C      4     6  0.13544870344936E+01  0.13995152216487E+01 -0.32644656511697E+00
C      5     6 -0.31773996055005E+00 -0.10058030313047E+01 -0.35979538623636E+00
N      6     7  0.50312566578639E+00 -0.24642036001378E+01  0.18519399031912E+01
C      7     6 -0.31927875752040E+01 -0.45995985226395E+00 -0.52647313005605E+00
C      8     6 -0.37180485980888E+01  0.10958218145437E+01 -0.29088020323368E+01
C      9     6 -0.45716029727781E+01 -0.30004287495871E+01 -0.73583589378972E+00
C     10     6 -0.41890464527147E+01  0.96366674710855E+00  0.17861536578634E+01
H     11     1  0.68577790334048E+01  0.16741432476949E+01  0.29905976762183E+01
H     12     1  0.38758760833620E+01  0.29002782341865E+01  0.38583860194388E+01
H     13     1  0.55104209809269E+01  0.41746821218503E+01  0.12250653201327E+01
H     14     1  0.32054687508373E+01 -0.10539089819230E+01  0.16669732821562E+01
H     15     1  0.72579283330955E+01 -0.10586981163702E+01 -0.64085870217338E+00
H     16     1  0.61085659066637E+01  0.14141020098049E+01 -0.25788060748608E+01
H     17     1  0.46263886679996E+01 -0.15890450717932E+01 -0.26252641110040E+01
H     18     1  0.14985342297228E+01  0.22569054079595E+01 -0.21898251745626E+01
H     19     1  0.56905399782414E+00  0.27757982825770E+01  0.98811723313596E+00
H     20     1  0.18433804907010E+00 -0.21169690847746E+01 -0.20335693720987E+01
H     21     1 -0.45885679802624E+00 -0.19282826317331E+01  0.34236338828903E+01
H     22     1  0.23921031728450E+00 -0.43430497557420E+01  0.16142644311659E+01
H     23     1 -0.29048645196022E+01  0.20014944388436E+00 -0.45695973120735E+01
H     24     1 -0.57436718616323E+01  0.12447345346403E+01 -0.32019917766318E+01
H     25     1 -0.29685037032635E+01  0.30005123393568E+01 -0.27455710968856E+01
H     26     1 -0.43171820463978E+01 -0.41399185647507E+01  0.95630174636845E+00
H     27     1 -0.65848716195325E+01 -0.26860672371913E+01 -0.97549676264777E+00
H     28     1 -0.39001850563715E+01 -0.40689694857447E+01 -0.23584733755874E+01
H     29     1 -0.33514255128670E+01  0.28310758119184E+01  0.19653101375022E+01
H     30     1 -0.38789641635856E+01 -0.76969654741691E-01  0.35330185891810E+01
H     31     1 -0.62158614534107E+01  0.12193798000197E+01  0.15875536090674E+01
[GTO]
           1 0
 s           4   1.00000000000000     
   51.0493630955799      -0.163120632101274     
   8.79112274068875      -0.199110245810007     
  0.706404222589298       0.318820477536558     
  0.269228134134116       0.127065041842404     
 p           4   1.00000000000000     
   5.82636561408000       0.737164515452096     
   1.51068960187200       0.682163716148503     
  0.532564832880000       0.357830539292537     
  0.212023236906000       5.398303027584788E-002
 
           2 0
 s           4   1.00000000000000     
   63.5940244669410      -0.192343884147216     
   10.9514172315237      -0.234781079249537     
  0.879993102573770       0.375937539017009     
  0.335387152965211       0.149828892718628     
 p           4   1.00000000000000     
   7.29650404814951       0.976586663156674     
   1.89187454507126       0.903722267303458     
  0.666944321108241       0.474049584615364     
  0.265522026741309       7.151606771501186E-002
 
           3 0
 s           4   1.00000000000000     
   51.0493630955799      -0.163120632101274     
   8.79112274068875      -0.199110245810007     
  0.706404222589298       0.318820477536558     
  0.269228134134116       0.127065041842404     
 p           4   1.00000000000000     
   5.82636561408000       0.737164515452096     
   1.51068960187200       0.682163716148503     
  0.532564832880000       0.357830539292537     
  0.212023236906000       5.398303027584788E-002
 
           4 0
 s           4   1.00000000000000     
   51.0493630955799      -0.163120632101274     
   8.79112274068875      -0.199110245810007     
  0.706404222589298       0.318820477536558     
  0.269228134134116       0.127065041842404     
 p           4   1.00000000000000     
   5.82636561408000       0.737164515452096     
   1.51068960187200       0.682163716148503     
  0.532564832880000       0.357830539292537     
  0.212023236906000       5.398303027584788E-002
 
           5 0
 s           4   1.00000000000000     
   51.0493630955799      -0.163120632101274     
   8.79112274068875      -0.199110245810007     
  0.706404222589298       0.318820477536558     
  0.269228134134116       0.127065041842404     
 p           4   1.00000000000000     
   5.82636561408000       0.737164515452096     
   1.51068960187200       0.682163716148503     
  0.532564832880000       0.357830539292537     
  0.212023236906000       5.398303027584788E-002
 
           6 0
 s           4   1.00000000000000     
   63.5940244669410      -0.192343884147216     
   10.9514172315237      -0.234781079249537     
  0.879993102573770       0.375937539017009     
  0.335387152965211       0.149828892718628     
 p           4   1.00000000000000     
   7.29650404814951       0.976586663156674     
   1.89187454507126       0.903722267303458     
  0.666944321108241       0.474049584615364     
  0.265522026741309       7.151606771501186E-002
 
           7 0
 s           4   1.00000000000000     
   51.0493630955799      -0.163120632101274     
   8.79112274068875      -0.199110245810007     
  0.706404222589298       0.318820477536558     
  0.269228134134116       0.127065041842404     
 p           4   1.00000000000000     
   5.82636561408000       0.737164515452096     
   1.51068960187200       0.682163716148503     
  0.532564832880000       0.357830539292537     
  0.212023236906000       5.398303027584788E-002
 
           8 0
 s           4   1.00000000000000     
   51.0493630955799      -0.163120632101274     
   8.79112274068875      -0.199110245810007     
  0.706404222589298       0.318820477536558     
  0.269228134134116       0.127065041842404     
 p           4   1.00000000000000     
   5.82636561408000       0.737164515452096     
   1.51068960187200       0.682163716148503     
  0.532564832880000       0.357830539292537     
  0.212023236906000       5.398303027584788E-002
 
           9 0
 s           4   1.00000000000000     
   51.0493630955799      -0.163120632101274     
   8.79112274068875      -0.199110245810007     
  0.706404222589298       0.318820477536558     
  0.269228134134116       0.127065041842404     
 p           4   1.00000000000000     
   5.82636561408000       0.737164515452096     
   1.51068960187200       0.682163716148503     
  0.532564832880000       0.357830539292537     
  0.212023236906000       5.398303027584788E-002
 
          10 0
 s           4   1.00000000000000     
   51.0493630955799      -0.163120632101274     
   8.79112274068875      -0.199110245810007     
  0.706404222589298       0.318820477536558     
  0.269228134134116       0.127065041842404     
 p           4   1.00000000000000     
   5.82636561408000       0.737164515452096     
   1.51068960187200       0.682163716148503     
  0.532564832880000       0.357830539292537     
  0.212023236906000       5.398303027584788E-002
 
          11 0
 s           3   1.00000000000000     
   3.37022769753360       0.273591105889083     
  0.613891182214980       0.264605406538605     
  0.166142911484160       8.246594753408230E-002
 
          12 0
 s           3   1.00000000000000     
   3.37022769753360       0.273591105889083     
  0.613891182214980       0.264605406538605     
  0.166142911484160       8.246594753408230E-002
 
          13 0
 s           3   1.00000000000000     
   3.37022769753360       0.273591105889083     
  0.613891182214980       0.264605406538605     
  0.166142911484160       8.246594753408230E-002
 
          14 0
 s           3   1.00000000000000     
   3.37022769753360       0.273591105889083     
  0.613891182214980       0.264605406538605     
  0.166142911484160       8.246594753408230E-002
 
          15 0
 s           3   1.00000000000000     
   3.37022769753360       0.273591105889083     
  0.613891182214980       0.264605406538605     
  0.166142911484160       8.246594753408230E-002
 
          16 0
 s           3   1.00000000000000     
   3.37022769753360       0.273591105889083     
  0.613891182214980       0.264605406538605     
  0.166142911484160       8.246594753408230E-002
 
          17 0
 s           3   1.00000000000000     
   3.37022769753360       0.273591105889083     
  0.613891182214980       0.264605406538605     
  0.166142911484160       8.246594753408230E-002
 
          18 0
 s           3   1.00000000000000     
   3.37022769753360       0.273591105889083     
  0.613891182214980       0.264605406538605     
  0.166142911484160       8.246594753408230E-002
 
          19 0
 s           3   1.00000000000000     
   3.37022769753360       0.273591105889083     
  0.613891182214980       0.264605406538605     
  0.166142911484160       8.246594753408230E-002
 
          20 0
 s           3   1.00000000000000     
   3.37022769753360       0.273591105889083     
  0.613891182214980       0.264605406538605     
  0.166142911484160       8.246594753408230E-002
 
          21 0
 s           3   1.00000000000000     
   3.37022769753360       0.273591105889083     
  0.613891182214980       0.264605406538605     
  0.166142911484160       8.246594753408230E-002
 
          22 0
 s           3   1.00000000000000     
   3.37022769753360       0.273591105889083     
  0.613891182214980       0.264605406538605     
  0.166142911484160       8.246594753408230E-002
 
          23 0
 s           3   1.00000000000000     
   3.37022769753360       0.273591105889083     
  0.613891182214980       0.264605406538605     
  0.166142911484160       8.246594753408230E-002
 
          24 0
 s           3   1.00000000000000     
   3.37022769753360       0.273591105889083     
  0.613891182214980       0.264605406538605     
  0.166142911484160       8.246594753408230E-002
 
          25 0
 s           3   1.00000000000000     
   3.37022769753360       0.273591105889083     
  0.613891182214980       0.264605406538605     
  0.166142911484160       8.246594753408230E-002
 
          26 0
 s           3   1.00000000000000     
   3.37022769753360       0.273591105889083     
  0.613891182214980       0.264605406538605     
  0.166142911484160       8.246594753408230E-002
 
          27 0
 s           3   1.00000000000000     
   3.37022769753360       0.273591105889083     
  0.613891182214980       0.264605406538605     
  0.166142911484160       8.246594753408230E-002
 
          28 0
 s           3   1.00000000000000     
   3.37022769753360       0.273591105889083     
  0.613891182214980       0.264605406538605     
  0.166142911484160       8.246594753408230E-002
 
          29 0
 s           3   1.00000000000000     
   3.37022769753360       0.273591105889083     
  0.613891182214980       0.264605406538605     
  0.166142911484160       8.246594753408230E-002
 
          30 0
 s           3   1.00000000000000     
   3.37022769753360       0.273591105889083     
  0.613891182214980       0.264605406538605     
  0.166142911484160       8.246594753408230E-002
 
          31 0
 s           3   1.00000000000000     
   3.37022769753360       0.273591105889083     
  0.613891182214980       0.264605406538605     
  0.166142911484160       8.246594753408230E-002
 
[MO]
Sym=     1a
Ene=  -0.852907594547088     
Spin= Alpha
Occup=     2.00000000
           1 -0.185937346495692     
           2  6.449208000597968E-002
           3  8.439662895791088E-002
           4  9.195318472274348E-002
           5 -0.563508317422745     
           6  1.053457411013693E-002
           7 -6.275624305950722E-002
           8  5.232167615462378E-002
           9 -0.188720999225785     
          10  8.973511719427953E-002
          11 -5.067026208043503E-002
          12 -9.711958428370815E-002
          13 -0.227434547519633     
          14 -0.126142092687889     
          15  4.804220846743133E-002
          16 -4.565549301364234E-002
          17 -6.987043686982763E-002
          18 -4.693763010629267E-002
          19 -2.387589479052872E-002
          20 -1.444928807200993E-002
          21 -3.575298334766019E-002
          22 -1.568369024348306E-002
          23 -3.289042908954027E-002
          24  2.354920224271125E-002
          25 -3.039708123908234E-003
          26 -7.330344105533287E-003
          27 -5.253763611123031E-004
          28 -1.348735341554301E-003
          29  1.744661905957176E-004
          30 -7.618304359085989E-004
          31  2.071153523880475E-004
          32 -4.203855629659568E-004
          33  6.429936528316518E-004
          34 -2.928021568979729E-004
          35 -7.823231094462970E-005
          36 -6.090852740814765E-005
          37 -5.589886432522802E-004
          38 -1.307602487046869E-003
          39  2.525481702781884E-004
          40  3.270646729226354E-004
          41 -2.967742887311411E-002
          42 -3.187117171594215E-002
          43 -3.432094004342335E-002
          44 -0.117538218300687     
          45 -2.984675131723245E-002
          46 -3.471647812629855E-002
          47 -3.290788855919231E-002
          48 -4.176638371109727E-002
          49 -4.231072364180605E-002
          50 -1.391630787251413E-002
          51 -1.945731670645817E-003
          52  1.656944990019319E-003
          53  1.795884147116266E-005
          54  1.405578133587498E-005
          55  1.784011012389566E-006
          56  9.444965470300111E-005
          57 -2.177642515305349E-005
          58  1.605625077770504E-005
          59 -5.673961367168724E-004
          60 -1.447220790273042E-004
          61  1.991913432364671E-005
Sym=     2a
Ene=  -0.822148512773483     
Spin= Alpha
Occup=     2.00000000
           1  0.238686506567372     
           2  9.931703537218577E-003
           3 -7.965218522417392E-002
           4 -7.171302986093167E-002
           5  9.030334910401605E-002
           6  0.376992411205921     
           7  8.488854722999424E-002
           8  8.145581908495972E-002
           9  0.141532033305430     
          10  2.278176383790737E-002
          11  4.342739216125330E-002
          12  8.171306804747371E-002
          13 -0.332509404379608     
          14  2.936506479583281E-003
          15  0.110475512368915     
          16 -3.180640607038113E-002
          17 -0.277058659354230     
          18 -8.452908304027160E-002
          19 -4.826054955090429E-002
          20 -4.831959996353648E-002
          21 -0.150588817126684     
          22  1.105104564794596E-003
          23 -9.073322070023912E-002
          24  8.755068158517763E-002
          25 -5.536237781048634E-002
          26 -4.636423138559077E-002
          27  7.778689013310580E-004
          28 -7.510162109288867E-003
          29 -1.014251023542463E-002
          30 -8.364857659274775E-003
          31  4.249197651756269E-003
          32 -8.124925907317893E-003
          33 -6.661665254378548E-003
          34 -7.965523944329133E-003
          35 -5.620477068889297E-003
          36 -1.399101434023876E-003
          37 -1.284727292185614E-002
          38 -1.118374285612043E-002
          39  4.789107527700149E-003
          40  6.712438556168471E-003
          41  7.384805905052114E-002
          42  3.874527993877559E-002
          43  5.728112410662329E-002
          44 -4.882315812246255E-002
          45  5.295934796249420E-002
          46  3.823148233320110E-002
          47  5.633933311086606E-003
          48 -6.877080148656169E-002
          49 -7.546103935680790E-002
          50 -6.240345673079308E-002
          51 -2.376472531508105E-002
          52 -1.299416606656289E-002
          53 -2.321420957710017E-003
          54 -3.088518100665712E-004
          55 -3.771561352653585E-003
          56 -1.734583165424325E-003
          57 -2.561849000990642E-004
          58 -1.515903300114049E-003
          59 -5.108868353273822E-003
          60 -3.455662308076726E-003
          61 -4.780533338259784E-004
Sym=     3a
Ene=  -0.809312606087995     
Spin= Alpha
Occup=     2.00000000
           1  0.308825482259919     
           2 -0.102751351189629     
           3 -4.386367059286655E-002
           4 -1.490904645485181E-002
           5 -1.423919065553218E-003
           6 -0.132451722450775     
           7  0.276150183388385     
           8  0.365650915367093     
           9 -0.383362638897997     
          10  9.479065683665072E-002
          11  1.181431876213060E-003
          12 -6.496979616499191E-002
          13  7.272496849348573E-002
          14  8.242177311505547E-006
          15  5.209090328665206E-002
          16  9.417444547675966E-002
          17 -1.806443490520918E-003
          18 -8.435418620888202E-003
          19  1.330815025769289E-002
          20  1.815894275186708E-002
          21  6.427243802197907E-003
          22 -2.991238081532233E-003
          23  1.134404789156438E-002
          24  7.337578446332149E-003
          25  4.448582605802306E-003
          26  1.860374521091638E-003
          27  2.001850174887676E-003
          28  3.000719597649055E-003
          29  2.871737364357324E-004
          30 -9.734608607589711E-006
          31  1.678470739595090E-004
          32  8.583808546611019E-004
          33  5.496080997908346E-005
          34  1.429173073026798E-005
          35  4.267843478230203E-004
          36  3.749604675785248E-004
          37  3.761939661137273E-003
          38  2.444083646108938E-003
          39 -2.556706717802755E-004
          40 -9.336340198269396E-004
          41  6.214338566998688E-002
          42  0.111336300591602     
          43  7.248092065012174E-002
          44  3.313997635706949E-003
          45 -9.485331268245496E-002
          46 -8.984234274958706E-002
          47 -0.119954502609401     
          48 -5.524771358122848E-003
          49  6.524687003928430E-002
          50 -1.443316954928444E-002
          51  7.386656401277979E-003
          52 -2.375045214026512E-003
          53 -3.700780608579575E-004
          54  3.099544528301109E-005
          55  5.444156411853258E-004
          56  9.913824106067699E-005
          57  3.565296698793908E-005
          58 -2.016312863145575E-004
          59  2.926132849278618E-003
          60  1.009719528406086E-003
          61  1.637181651557689E-004
Sym=     4a
Ene=  -0.788794073849491     
Spin= Alpha
Occup=     2.00000000
           1  0.135010722530163     
           2  4.285511414790686E-002
           3 -5.637364857594766E-002
           4  1.056935642247719E-002
           5 -5.047148826675504E-002
           6  0.231908299227941     
           7 -0.103627976420488     
           8  0.149591155487564     
           9  5.823558218919105E-002
          10  4.861072116871411E-002
          11 -2.207031659223944E-002
          12  5.035210300040136E-002
          13 -0.189880896875070     
          14 -0.157396296438386     
          15 -7.582367242460007E-002
          16 -4.464241146330758E-004
          17  0.347805603308967     
          18 -4.265851173959029E-002
          19 -9.429810001469023E-002
          20  9.584198423780642E-002
          21  0.340913646675362     
          22 -7.202799712219225E-002
          23  7.504609025873710E-002
          24 -0.123716325391285     
          25  0.183063034274434     
          26  7.435876006620630E-002
          27 -2.916193920398933E-002
          28  2.119137002477585E-002
          29  3.683430459212372E-002
          30  1.361631478984614E-002
          31 -1.913002363120665E-002
          32  2.584859286588726E-002
          33  5.746288000222152E-002
          34  3.482290910246516E-002
          35  2.925259760588358E-002
          36  7.571813257614654E-003
          37  5.271904140012341E-002
          38  2.577883491006822E-002
          39 -2.359915903400615E-002
          40 -2.424658419067720E-002
          41  7.213703076529480E-002
          42  3.166866331843445E-002
          43  2.429436773956704E-002
          44  5.685397343542457E-002
          45  5.017440169116030E-002
          46  4.310523066012831E-003
          47  7.039609689226740E-003
          48 -7.936708477042975E-002
          49 -5.637131120672693E-002
          50  9.242341430015158E-002
          51  8.206837001232486E-002
          52  8.062836554094659E-002
          53  8.758175215952893E-003
          54  4.406591554603330E-003
          55  5.798552451251843E-003
          56  1.712790986245502E-002
          57  5.902733157348823E-003
          58  1.342165062705485E-002
          59  9.502564640565767E-003
          60  1.756623282927301E-002
          61  6.217310954911774E-003
Sym=     5a
Ene=  -0.771789355159494     
Spin= Alpha
Occup=     2.00000000
           1 -0.117425412620158     
           2 -2.453921887185538E-002
           3 -7.908431227687404E-002
           4  6.336515123873160E-002
           5  0.164919939364051     
           6 -0.100018338018629     
           7 -0.289409165552949     
           8  0.193963066595695     
           9 -0.117436774079935     
          10 -2.190215393175188E-002
          11 -8.985940581115247E-002
          12  5.275205291257300E-002
          13 -0.203421623149791     
          14  6.422610089036351E-002
          15 -8.730537895536060E-002
          16  9.371684722060473E-002
          17 -0.151439202524690     
          18  0.111662313120131     
          19 -8.277636457643653E-002
          20  7.561580509117587E-002
          21  0.145224894175434     
          22  7.925400974844617E-002
          23  2.358425475282937E-002
          24  4.573930632498811E-003
          25 -0.248095344386768     
          26 -4.948446905936366E-002
          27 -7.156371246255130E-003
          28  6.617447240718617E-003
          29 -9.907433868044088E-002
          30 -2.738873213142089E-002
          31  2.958041535389089E-002
          32 -4.938561955210930E-002
          33 -7.545798834437301E-002
          34 -3.239473185005944E-002
          35 -4.442705589992808E-002
          36 -2.920500916244218E-003
          37 -8.728321808212063E-002
          38 -2.954163525862364E-002
          39  2.359600630632462E-002
          40  4.368298491694011E-002
          41 -2.801490727346674E-002
          42 -2.114269346510278E-002
          43 -9.235577506614609E-002
          44  0.244209687161404     
          45 -2.394300716854426E-002
          46 -9.427650962875393E-002
          47 -2.511997046006286E-002
          48 -0.133158858522850     
          49 -9.034008721356249E-002
          50 -5.214473468970572E-002
          51  2.759708317417028E-002
          52  2.809461230212906E-002
          53 -2.463224725929560E-002
          54 -1.530659125908638E-002
          55 -2.965743914819723E-002
          56 -1.584088749565160E-002
          57 -1.275147297282620E-002
          58 -1.792240392800144E-002
          59 -2.627685633027701E-002
          60 -1.826913058377204E-002
          61 -1.534986865726754E-002
Sym=     6a
Ene=  -0.753881251820977     
Spin= Alpha
Occup=     2.00000000
           1 -9.986587930516500E-002
           2 -2.172186906525575E-002
           3 -9.846450162606403E-002
           4  3.708547233217502E-002
           5  0.160039551753343     
           6 -1.812403027529214E-002
           7 -0.223634661019817     
           8  0.156764093398798     
           9 -8.951342659564560E-002
          10 -2.437847831002816E-002
          11 -6.990444562524428E-002
          12  7.677293629595043E-002
          13 -5.854014112154921E-002
          14 -4.247075700165264E-002
          15 -4.947912885704707E-002
          16  2.844695579292727E-002
          17 -1.517861057127339E-002
          18 -0.124586408939603     
          19  0.105026642059246     
          20 -0.103777295017091     
          21 -0.335981996932962     
          22  6.824030561870981E-002
          23  2.352874913644174E-002
          24  3.998399436318492E-002
          25  0.330452993938617     
          26 -2.090304770180221E-002
          27  2.599553935984309E-002
          28 -2.101096535635515E-002
          29  0.169548158090565     
          30  2.008646896222702E-002
          31 -4.706532651892278E-002
          32  7.493844281848144E-002
          33  0.129345757362571     
          34  3.172446914428907E-002
          35  7.378289521220166E-002
          36  4.212042202333847E-004
          37  0.150326762765500     
          38  2.614948422266572E-002
          39 -3.463018362371991E-002
          40 -7.102061665424088E-002
          41 -2.221848638771138E-002
          42 -2.868766519105163E-002
          43 -9.389789894587991E-002
          44  0.157826025164495     
          45 -1.474125206719171E-002
          46 -8.983945465400200E-002
          47 -2.958294009881648E-002
          48 -5.142514213880403E-002
          49 -2.135044077813589E-002
          50 -3.851439640828873E-003
          51 -9.784789974144119E-002
          52 -0.124492359910351     
          53  4.111300517922758E-002
          54  3.804154872230565E-002
          55  4.082089898524618E-002
          56  2.160397306205056E-002
          57  3.176926671068051E-002
          58  3.003005011917254E-002
          59  3.834573624866233E-002
          60  2.826726531146072E-002
          61  3.763377235161742E-002
Sym=     7a
Ene=  -0.742428644763552     
Spin= Alpha
Occup=     2.00000000
           1  0.166550725097653     
           2  8.079538260406686E-002
           3  2.999210492063258E-003
           4  0.117783769401016     
           5 -0.152882393183302     
           6  7.111230224376325E-002
           7 -0.180611651060976     
           8  0.133300227134329     
           9  8.985325044938240E-002
          10  7.191486362198132E-002
          11 -9.273660477611892E-002
          12 -1.227761058525821E-002
          13  0.105943767453688     
          14 -0.215505701116366     
          15 -9.012843619365370E-002
          16 -5.474806523926714E-002
          17  0.168633934985255     
          18  0.116262434153008     
          19  0.128597847975110     
          20 -9.580921791983593E-002
          21 -0.257570661169953     
          22  9.391685994464188E-002
          23  9.605545021128266E-002
          24 -9.037616355061086E-002
          25 -0.176627389255861     
          26  8.950464058507622E-002
          27  3.835232359246640E-002
          28 -4.592099459233930E-002
          29 -4.334018361409400E-002
          30  2.095498496644263E-002
          31  2.315788547339898E-002
          32 -3.113830541948115E-002
          33 -0.152616089875765     
          34 -2.771855215115661E-002
          35 -5.170895935705378E-002
          36 -2.012811534749541E-002
          37 -0.142924753306121     
          38 -1.002951049469733E-002
          39  4.342634739845657E-002
          40  3.415825799474123E-002
          41  0.129313003404499     
          42  9.344685139607695E-002
          43  4.517318144265781E-002
          44  7.177763135005220E-002
          45  9.137989372194275E-002
          46  1.276417608629353E-002
          47  6.603557226633462E-002
          48  4.237119568917149E-002
          49  3.641860332085909E-002
          50  8.556300750151087E-002
          51 -0.139765142403989     
          52 -0.136795051494492     
          53 -2.428348813987809E-003
          54 -1.976865880832898E-002
          55  1.244368744909321E-003
          56 -5.451796116972583E-002
          57 -3.934616074471475E-002
          58 -3.463764081079689E-002
          59 -2.753449408272124E-002
          60 -5.494371703058985E-002
          61 -4.091765170777870E-002
Sym=     8a
Ene=  -0.727579703986625     
Spin= Alpha
Occup=     2.00000000
           1  5.564770368284975E-002
           2 -7.666295644571487E-003
           3  4.152367360338013E-002
           4  0.126257036045785     
           5 -0.145882847003587     
           6 -0.108263746580017     
           7 -0.104083386530224     
           8  0.118131486779593     
           9  0.211985674345357     
          10  0.120097008686326     
          11 -0.119474483134442     
          12 -0.128322134944153     
          13  9.506990256476754E-002
          14 -7.236337097334156E-002
          15  8.752031655720988E-002
          16  0.100771547470032     
          17 -0.205810211770372     
          18 -2.052856440631540E-004
          19  0.118266223544065     
          20  0.125895498992316     
          21  0.118310201989706     
          22  1.632832679842443E-002
          23  3.910793640332861E-002
          24  0.179285661390494     
          25  3.444209580821559E-002
          26 -8.344655283860360E-002
          27  9.693634855129539E-002
          28  9.428038958257437E-002
          29  1.055114703149551E-002
          30 -1.781177885744081E-002
          31  2.233771154389029E-002
          32  2.576447464391115E-002
          33 -3.797171264829014E-002
          34 -3.085403115703940E-002
          35  1.249278457263889E-002
          36  2.152237188512579E-002
          37  0.233131013840437     
          38  2.644024926005155E-002
          39 -8.217502861947265E-003
          40 -1.829517316992963E-002
          41  4.373596337206387E-002
          42  9.868717525608461E-002
          43  1.097940681588733E-002
          44  8.865306079756270E-002
          45  0.149739057969581     
          46  9.668847949103059E-002
          47  0.140870322928844     
          48  1.005761227578144E-002
          49  0.143756271911704     
          50 -0.172798615555765     
          51  0.138066167398035     