[Molden Format]
[Title]
[Atoms] AU
C      1     6  0.70495421978429E+01 -0.36561535862922E+01 -0.33354389043557E+00
C      2     6  0.68656098175526E+01 -0.76882488332414E+00 -0.33057259862854E+00
C      3     6  0.89852057520281E+01  0.31306983236102E+00 -0.19838458700476E+01
C      4     6  0.71870730050339E+01  0.21060187767620E+00  0.23722740073932E+01
C      5     6  0.43025617096054E+01  0.22166956550246E-01 -0.15075002028606E+01
N      6     7  0.37890568101135E+01  0.27498463850964E+01 -0.15434794921559E+01
C      7     6  0.19645607491301E+01 -0.11501012569104E+01 -0.19037540511525E+00
N      8     7 -0.21073352376353E+00  0.38098555389118E+00 -0.10364928667732E+01
C      9     6 -0.22952889175698E+01  0.78547719020075E+00  0.80624508327102E+00
C     10     6 -0.35914843144401E+01 -0.16528683489384E+01  0.15394302914046E+01
C     11     6 -0.37986194056349E+01 -0.37042037990772E+01 -0.89812467028324E-01
C     12     6 -0.50808650296557E+01 -0.58612920894436E+01  0.64067811193744E+00
C     13     6 -0.61846916057840E+01 -0.59738604946891E+01  0.30142953361705E+01
Br    14    35 -0.79473885401071E+01 -0.89376724981909E+01  0.40156651932188E+01
C     15     6 -0.60035833746723E+01 -0.39402379777548E+01  0.46593916880003E+01
C     16     6 -0.47090061197521E+01 -0.18000604535646E+01  0.39145718352043E+01
C     17     6 -0.41487453129042E+01  0.26597549607679E+01 -0.31482424661390E+00
C     18     6 -0.41875925502650E+01  0.51416577580306E+01  0.54376741074051E+00
C     19     6 -0.58560404148857E+01  0.68754941542451E+01 -0.47160224372950E+00
C     20     6 -0.74968700628492E+01  0.61243197931081E+01 -0.23734831579353E+01
Br    21    35 -0.97865507174700E+01  0.84983032667537E+01 -0.37906290651319E+01
C     22     6 -0.74832757448683E+01  0.36512811204575E+01 -0.32478805559997E+01
C     23     6 -0.58134742473855E+01  0.19314845178717E+01 -0.22147502899754E+01
H     24     1  0.57354325891368E+01 -0.44959869309940E+01  0.10021581503612E+01
H     25     1  0.89446107302588E+01 -0.42261177767234E+01  0.20978824641320E+00
H     26     1  0.66753913667695E+01 -0.44160188570586E+01 -0.22054017675105E+01
H     27     1  0.89555815879431E+01  0.23686568246772E+01 -0.20026778815935E+01
H     28     1  0.88270713283724E+01 -0.36634105103589E+00 -0.39169951068535E+01
H     29     1  0.10809931046513E+02 -0.27527620543936E+00 -0.12533304382142E+01
H     30     1  0.71941089774720E+01  0.22656614930783E+01  0.24553583471827E+01
H     31     1  0.57314001395893E+01 -0.50485771002444E+00  0.36330401933994E+01
H     32     1  0.89968267605876E+01 -0.42759624336457E+00  0.30998169257793E+01
H     33     1  0.43043978590534E+01 -0.61609597589145E+00 -0.34782715418778E+01
H     34     1  0.43990652107186E+01  0.35830195895954E+01  0.74297123531565E-01
H     35     1  0.46374914495776E+01  0.36251795871930E+01 -0.30175409721474E+01
H     36     1  0.21241733936816E+01 -0.95810847536316E+00  0.18542887126960E+01
H     37     1  0.17383599036793E+01 -0.31392982790744E+01 -0.65181949441537E+00
H     38     1 -0.96249104341516E+00 -0.29789532929959E+00 -0.26803794459927E+01
H     39     1  0.87248683354418E+00  0.21229501795136E+01 -0.14523895883270E+01
H     40     1 -0.14467766194865E+01  0.16258129324862E+01  0.24964382664346E+01
H     41     1 -0.29734985750565E+01 -0.36787594967758E+01 -0.19588240322233E+01
H     42     1 -0.52309784978983E+01 -0.74477448182373E+01 -0.62951035402200E+00
H     43     1 -0.68663242819906E+01 -0.40349305126057E+01  0.65025521441680E+01
H     44     1 -0.45788807386406E+01 -0.21611799551952E+00  0.51933624057483E+01
H     45     1 -0.29208008659117E+01  0.57331956309413E+01  0.20303533476986E+01
H     46     1 -0.58898929516036E+01  0.87962585415634E+01  0.20713500675915E+00
H     47     1 -0.87768578098103E+01  0.30802172006171E+01 -0.47148406060423E+01
H     48     1 -0.58492279523876E+01  0.10256989142678E-02 -0.28741342458588E+01
[GTO]
           1 0
 s           4   1.00000000000000     
   51.0493630955799      -0.163120632101274     
   8.79112274068875      -0.199110245810007     
  0.706404222589298       0.318820477536558     
  0.269228134134116       0.127065041842404     
 p           4   1.00000000000000     
   5.82636561408000       0.737164515452096     
   1.51068960187200       0.682163716148503     
  0.532564832880000       0.357830539292537     
  0.212023236906000       5.398303027584788E-002
 
           2 0
 s           4   1.00000000000000     
   51.0493630955799      -0.163120632101274     
   8.79112274068875      -0.199110245810007     
  0.706404222589298       0.318820477536558     
  0.269228134134116       0.127065041842404     
 p           4   1.00000000000000     
   5.82636561408000       0.737164515452096     
   1.51068960187200       0.682163716148503     
  0.532564832880000       0.357830539292537     
  0.212023236906000       5.398303027584788E-002
 
           3 0
 s           4   1.00000000000000     
   51.0493630955799      -0.163120632101274     
   8.79112274068875      -0.199110245810007     
  0.706404222589298       0.318820477536558     
  0.269228134134116       0.127065041842404     
 p           4   1.00000000000000     
   5.82636561408000       0.737164515452096     
   1.51068960187200       0.682163716148503     
  0.532564832880000       0.357830539292537     
  0.212023236906000       5.398303027584788E-002
 
           4 0
 s           4   1.00000000000000     
   51.0493630955799      -0.163120632101274     
   8.79112274068875      -0.199110245810007     
  0.706404222589298       0.318820477536558     
  0.269228134134116       0.127065041842404     
 p           4   1.00000000000000     
   5.82636561408000       0.737164515452096     
   1.51068960187200       0.682163716148503     
  0.532564832880000       0.357830539292537     
  0.212023236906000       5.398303027584788E-002
 
           5 0
 s           4   1.00000000000000     
   51.0493630955799      -0.163120632101274     
   8.79112274068875      -0.199110245810007     
  0.706404222589298       0.318820477536558     
  0.269228134134116       0.127065041842404     
 p           4   1.00000000000000     
   5.82636561408000       0.737164515452096     
   1.51068960187200       0.682163716148503     
  0.532564832880000       0.357830539292537     
  0.212023236906000       5.398303027584788E-002
 
           6 0
 s           4   1.00000000000000     
   63.5940244669410      -0.192343884147216     
   10.9514172315237      -0.234781079249537     
  0.879993102573770       0.375937539017009     
  0.335387152965211       0.149828892718628     
 p           4   1.00000000000000     
   7.29650404814951       0.976586663156674     
   1.89187454507126       0.903722267303458     
  0.666944321108241       0.474049584615364     
  0.265522026741309       7.151606771501186E-002
 
           7 0
 s           4   1.00000000000000     
   51.0493630955799      -0.163120632101274     
   8.79112274068875      -0.199110245810007     
  0.706404222589298       0.318820477536558     
  0.269228134134116       0.127065041842404     
 p           4   1.00000000000000     
   5.82636561408000       0.737164515452096     
   1.51068960187200       0.682163716148503     
  0.532564832880000       0.357830539292537     
  0.212023236906000       5.398303027584788E-002
 
           8 0
 s           4   1.00000000000000     
   63.5940244669410      -0.192343884147216     
   10.9514172315237      -0.234781079249537     
  0.879993102573770       0.375937539017009     
  0.335387152965211       0.149828892718628     
 p           4   1.00000000000000     
   7.29650404814951       0.976586663156674     
   1.89187454507126       0.903722267303458     
  0.666944321108241       0.474049584615364     
  0.265522026741309       7.151606771501186E-002
 
           9 0
 s           4   1.00000000000000     
   51.0493630955799      -0.163120632101274     
   8.79112274068875      -0.199110245810007     
  0.706404222589298       0.318820477536558     
  0.269228134134116       0.127065041842404     
 p           4   1.00000000000000     
   5.82636561408000       0.737164515452096     
   1.51068960187200       0.682163716148503     
  0.532564832880000       0.357830539292537     
  0.212023236906000       5.398303027584788E-002
 
          10 0
 s           4   1.00000000000000     
   51.0493630955799      -0.163120632101274     
   8.79112274068875      -0.199110245810007     
  0.706404222589298       0.318820477536558     
  0.269228134134116       0.127065041842404     
 p           4   1.00000000000000     
   5.82636561408000       0.737164515452096     
   1.51068960187200       0.682163716148503     
  0.532564832880000       0.357830539292537     
  0.212023236906000       5.398303027584788E-002
 
          11 0
 s           4   1.00000000000000     
   51.0493630955799      -0.163120632101274     
   8.79112274068875      -0.199110245810007     
  0.706404222589298       0.318820477536558     
  0.269228134134116       0.127065041842404     
 p           4   1.00000000000000     
   5.82636561408000       0.737164515452096     
   1.51068960187200       0.682163716148503     
  0.532564832880000       0.357830539292537     
  0.212023236906000       5.398303027584788E-002
 
          12 0
 s           4   1.00000000000000     
   51.0493630955799      -0.163120632101274     
   8.79112274068875      -0.199110245810007     
  0.706404222589298       0.318820477536558     
  0.269228134134116       0.127065041842404     
 p           4   1.00000000000000     
   5.82636561408000       0.737164515452096     
   1.51068960187200       0.682163716148503     
  0.532564832880000       0.357830539292537     
  0.212023236906000       5.398303027584788E-002
 
          13 0
 s           4   1.00000000000000     
   51.0493630955799      -0.163120632101274     
   8.79112274068875      -0.199110245810007     
  0.706404222589298       0.318820477536558     
  0.269228134134116       0.127065041842404     
 p           4   1.00000000000000     
   5.82636561408000       0.737164515452096     
   1.51068960187200       0.682163716148503     
  0.532564832880000       0.357830539292537     
  0.212023236906000       5.398303027584788E-002
 
          14 0
 s           4   1.00000000000000     
   1.39945828869045      -0.102769152792432     
  0.717905697168947      -0.158164156426382     
  0.219318851343460       0.203511341157825     
  0.122112918138194       5.179094404565386E-002
 p           4   1.00000000000000     
   7.64470789089706      -0.109353850794790     
   2.21648201384657      -0.231810983025416     
  0.386850910660057       0.280563741226991     
  0.189824592130603       7.354598861994457E-002
 d           3   1.00000000000000     
  0.605164313048195       0.157771132981550     
  0.273716920667659       0.103014288459997     
  0.134459608964417       1.275590312162410E-002
 
          15 0
 s           4   1.00000000000000     
   51.0493630955799      -0.163120632101274     
   8.79112274068875      -0.199110245810007     
  0.706404222589298       0.318820477536558     
  0.269228134134116       0.127065041842404     
 p           4   1.00000000000000     
   5.82636561408000       0.737164515452096     
   1.51068960187200       0.682163716148503     
  0.532564832880000       0.357830539292537     
  0.212023236906000       5.398303027584788E-002
 
          16 0
 s           4   1.00000000000000     
   51.0493630955799      -0.163120632101274     
   8.79112274068875      -0.199110245810007     
  0.706404222589298       0.318820477536558     
  0.269228134134116       0.127065041842404     
 p           4   1.00000000000000     
   5.82636561408000       0.737164515452096     
   1.51068960187200       0.682163716148503     
  0.532564832880000       0.357830539292537     
  0.212023236906000       5.398303027584788E-002
 
          17 0
 s           4   1.00000000000000     
   51.0493630955799      -0.163120632101274     
   8.79112274068875      -0.199110245810007     
  0.706404222589298       0.318820477536558     
  0.269228134134116       0.127065041842404     
 p           4   1.00000000000000     
   5.82636561408000       0.737164515452096     
   1.51068960187200       0.682163716148503     
  0.532564832880000       0.357830539292537     
  0.212023236906000       5.398303027584788E-002
 
          18 0
 s           4   1.00000000000000     
   51.0493630955799      -0.163120632101274     
   8.79112274068875      -0.199110245810007     
  0.706404222589298       0.318820477536558     
  0.269228134134116       0.127065041842404     
 p           4   1.00000000000000     
   5.82636561408000       0.737164515452096     
   1.51068960187200       0.682163716148503     
  0.532564832880000       0.357830539292537     
  0.212023236906000       5.398303027584788E-002
 
          19 0
 s           4   1.00000000000000     
   51.0493630955799      -0.163120632101274     
   8.79112274068875      -0.199110245810007     
  0.706404222589298       0.318820477536558     
  0.269228134134116       0.127065041842404     
 p           4   1.00000000000000     
   5.82636561408000       0.737164515452096     
   1.51068960187200       0.682163716148503     
  0.532564832880000       0.357830539292537     
  0.212023236906000       5.398303027584788E-002
 
          20 0
 s           4   1.00000000000000     
   51.0493630955799      -0.163120632101274     
   8.79112274068875      -0.199110245810007     
  0.706404222589298       0.318820477536558     
  0.269228134134116       0.127065041842404     
 p           4   1.00000000000000     
   5.82636561408000       0.737164515452096     
   1.51068960187200       0.682163716148503     
  0.532564832880000       0.357830539292537     
  0.212023236906000       5.398303027584788E-002
 
          21 0
 s           4   1.00000000000000     
   1.39945828869045      -0.102769152792432     
  0.717905697168947      -0.158164156426382     
  0.219318851343460       0.203511341157825     
  0.122112918138194       5.179094404565386E-002
 p           4   1.00000000000000     
   7.64470789089706      -0.109353850794790     
   2.21648201384657      -0.231810983025416     
  0.386850910660057       0.280563741226991     
  0.189824592130603       7.354598861994457E-002
 d           3   1.00000000000000     
  0.605164313048195       0.157771132981550     
  0.273716920667659       0.103014288459997     
  0.134459608964417       1.275590312162410E-002
 
          22 0
 s           4   1.00000000000000     
   51.0493630955799      -0.163120632101274     
   8.79112274068875      -0.199110245810007     
  0.706404222589298       0.318820477536558     
  0.269228134134116       0.127065041842404     
 p           4   1.00000000000000     
   5.82636561408000       0.737164515452096     
   1.51068960187200       0.682163716148503     
  0.532564832880000       0.357830539292537     
  0.212023236906000       5.398303027584788E-002
 
          23 0
 s           4   1.00000000000000     
   51.0493630955799      -0.163120632101274     
   8.79112274068875      -0.199110245810007     
  0.706404222589298       0.318820477536558     
  0.269228134134116       0.127065041842404     
 p           4   1.00000000000000     
   5.82636561408000       0.737164515452096     
   1.51068960187200       0.682163716148503     
  0.532564832880000       0.357830539292537     
  0.212023236906000       5.398303027584788E-002
 
          24 0
 s           3   1.00000000000000     
   3.37022769753360       0.273591105889083     
  0.613891182214980       0.264605406538605     
  0.166142911484160       8.246594753408230E-002
 
          25 0
 s           3   1.00000000000000     
   3.37022769753360       0.273591105889083     
  0.613891182214980       0.264605406538605     
  0.166142911484160       8.246594753408230E-002
 
          26 0
 s           3   1.00000000000000     
   3.37022769753360       0.273591105889083     
  0.613891182214980       0.264605406538605     
  0.166142911484160       8.246594753408230E-002
 
          27 0
 s           3   1.00000000000000     
   3.37022769753360       0.273591105889083     
  0.613891182214980       0.264605406538605     
  0.166142911484160       8.246594753408230E-002
 
          28 0
 s           3   1.00000000000000     
   3.37022769753360       0.273591105889083     
  0.613891182214980       0.264605406538605     
  0.166142911484160       8.246594753408230E-002
 
          29 0
 s           3   1.00000000000000     
   3.37022769753360       0.273591105889083     
  0.613891182214980       0.264605406538605     
  0.166142911484160       8.246594753408230E-002
 
          30 0
 s           3   1.00000000000000     
   3.37022769753360       0.273591105889083     
  0.613891182214980       0.264605406538605     
  0.166142911484160       8.246594753408230E-002
 
          31 0
 s           3   1.00000000000000     
   3.37022769753360       0.273591105889083     
  0.613891182214980       0.264605406538605     
  0.166142911484160       8.246594753408230E-002
 
          32 0
 s           3   1.00000000000000     
   3.37022769753360       0.273591105889083     
  0.613891182214980       0.264605406538605     
  0.166142911484160       8.246594753408230E-002
 
          33 0
 s           3   1.00000000000000     
   3.37022769753360       0.273591105889083     
  0.613891182214980       0.264605406538605     
  0.166142911484160       8.246594753408230E-002
 
          34 0
 s           3   1.00000000000000     
   3.37022769753360       0.273591105889083     
  0.613891182214980       0.264605406538605     
  0.166142911484160       8.246594753408230E-002
 
          35 0
 s           3   1.00000000000000     
   3.37022769753360       0.273591105889083     
  0.613891182214980       0.264605406538605     
  0.166142911484160       8.246594753408230E-002
 
          36 0
 s           3   1.00000000000000     
   3.37022769753360       0.273591105889083     
  0.613891182214980       0.264605406538605     
  0.166142911484160       8.246594753408230E-002
 
          37 0
 s           3   1.00000000000000     
   3.37022769753360       0.273591105889083     
  0.613891182214980       0.264605406538605     
  0.166142911484160       8.246594753408230E-002
 
          38 0
 s           3   1.00000000000000     
   3.37022769753360       0.273591105889083     
  0.613891182214980       0.264605406538605     
  0.166142911484160       8.246594753408230E-002
 
          39 0
 s           3   1.00000000000000     
   3.37022769753360       0.273591105889083     
  0.613891182214980       0.264605406538605     
  0.166142911484160       8.246594753408230E-002
 
          40 0
 s           3   1.00000000000000     
   3.37022769753360       0.273591105889083     
  0.613891182214980       0.264605406538605     
  0.166142911484160       8.246594753408230E-002
 
          41 0
 s           3   1.00000000000000     
   3.37022769753360       0.273591105889083     
  0.613891182214980       0.264605406538605     
  0.166142911484160       8.246594753408230E-002
 
          42 0
 s           3   1.00000000000000     
   3.37022769753360       0.273591105889083     
  0.613891182214980       0.264605406538605     
  0.166142911484160       8.246594753408230E-002
 
          43 0
 s           3   1.00000000000000     
   3.37022769753360       0.273591105889083     
  0.613891182214980       0.264605406538605     
  0.166142911484160       8.246594753408230E-002
 
          44 0
 s           3   1.00000000000000     
   3.37022769753360       0.273591105889083     
  0.613891182214980       0.264605406538605     
  0.166142911484160       8.246594753408230E-002
 
          45 0
 s           3   1.00000000000000     
   3.37022769753360       0.273591105889083     
  0.613891182214980       0.264605406538605     
  0.166142911484160       8.246594753408230E-002
 
          46 0
 s           3   1.00000000000000     
   3.37022769753360       0.273591105889083     
  0.613891182214980       0.264605406538605     
  0.166142911484160       8.246594753408230E-002
 
          47 0
 s           3   1.00000000000000     
   3.37022769753360       0.273591105889083     
  0.613891182214980       0.264605406538605     
  0.166142911484160       8.246594753408230E-002
 
          48 0
 s           3   1.00000000000000     
   3.37022769753360       0.273591105889083     
  0.613891182214980       0.264605406538605     
  0.166142911484160       8.246594753408230E-002
 
[MO]
Sym=     1a
Ene=  -0.923943502186638     
Spin= Alpha
Occup=     2.00000000
           1  9.444418938928386E-009
           2 -1.243817829195151E-008
           3  1.137240488738284E-008
           4 -1.575704660568865E-009
           5  6.153288843236224E-008
           6 -9.934697684796424E-008
           7  1.565776142938077E-008
           8 -2.033349719855039E-008
           9 -1.795837799591904E-009
          10 -7.197959025516584E-009
          11 -1.285498124222663E-009
          12  2.366002486382924E-009
          13  6.867890915797152E-009
          14 -1.046907624399769E-008
          15 -1.692067381314534E-009
          16 -1.061443765570085E-008
          17  1.240640302933719E-006
          18 -9.195132465549649E-007
          19 -5.642473943413665E-008
          20  1.261520243300570E-007
          21  4.189565504937159E-007
          22 -2.118783466739870E-007
          23 -5.636269587941869E-007
          24  8.782765071216930E-009
          25  2.840176657266372E-006
          26  7.742592919692691E-007
          27  3.285756928856833E-007
          28 -1.581946755673590E-006
          29 -1.897540872606696E-005
          30  2.671115655975758E-005
          31 -1.073076405322541E-005
          32 -9.803131699256968E-006
          33 -6.217915143340663E-005
          34  7.190790235774835E-006
          35 -1.237084471110558E-005
          36  1.279161946615767E-005
          37 -9.992224979936013E-006
          38 -2.556436631539601E-006
          39 -5.578635152454498E-006
          40  2.908821515878084E-006
          41 -1.793917819374754E-006
          42 -1.525322484036960E-007
          43 -1.660335085402175E-006
          44 -1.019276576025273E-007
          45 -7.197990819967901E-008
          46 -5.703697052192278E-008
          47 -1.880720468381841E-007
          48  3.463481792207464E-008
          49  3.044472257895579E-008
          50 -3.818531450790199E-008
          51 -7.303317534766580E-008
          52  2.993337839441871E-008
          53  4.510950999710954E-007
          54 -2.338569841224430E-009
          55 -7.848015231169079E-009
          56  1.137481821312673E-009
          57  2.597416888751423E-009
          58 -8.514685594353962E-009
          59  5.917268705602540E-009
          60 -1.373789909673689E-008
          61  6.532081520967757E-009
          62  7.196791299622928E-009
          63 -4.662245487933736E-008
          64 -7.058531467584830E-008
          65 -1.037821785141126E-007
          66  6.920071091056286E-008
          67 -1.194367299121766E-006
          68 -5.615030663686521E-007
          69 -4.719093397000898E-007
          70  8.963038622959445E-007
          71 -8.930609321715728E-005
          72 -1.683887834826461E-004
          73  1.647310807411314E-004
          74 -9.039032244583724E-005
          75  1.910521851798949E-004
          76 -5.040872192933459E-004
          77  4.188277950854275E-004
          78 -3.342291979479546E-004
          79  7.600466249214500E-003
          80 -5.236942865187611E-003
          81  5.261037875025187E-004
          82 -5.241045089306272E-003
          83  7.422067357364293E-002
          84 -3.635030964711296E-002
          85  3.860268434014374E-002
          86 -2.356968879159719E-002
          87  0.965271295035564     
          88  1.772046261260542E-003
          89  3.223566584449857E-003
          90 -4.746497740232129E-003
          91  7.459756623694511E-004
          92  1.330469817094310E-003
          93 -2.076445479463761E-003
          94 -5.459781687084273E-003
          95  3.591376282421052E-003
          96 -3.045227471302230E-003
          97  7.586601402990702E-003
          98 -1.859448309259512E-003
          99  7.158504060658873E-003
         100  4.796921565359385E-004
         101  1.858915470547823E-004
         102 -4.393017612677715E-004
         103  5.367543249537054E-004
         104 -2.215267522635630E-004
         105 -3.450093023443018E-009
         106  1.233158917177413E-009
         107 -4.989378157807033E-009
         108  5.249098608500251E-010
         109 -1.032279410790182E-010
         110  2.071339699166676E-009
         111 -1.617613898809021E-010
         112  3.965650092773939E-010
         113  1.219596151363855E-009
         114  1.845793083949929E-007
         115 -1.422303336768872E-008
         116  2.353992256934873E-008
         117  7.009394652688709E-008
         118  3.869379708961908E-007
         119  2.509741200818601E-007
         120 -5.575225652897657E-007
         121  6.030035762824795E-006
         122  1.623038151608611E-007
         123 -7.039954807312679E-008
         124 -4.381354420310167E-008
         125  8.152177378520600E-007
         126  1.608182901570419E-004
         127 -1.156105551537905E-002
         128 -1.157300496778280E-002
         129  1.582201146429571E-004
Sym=     2a
Ene=  -0.922023180130469     
Spin= Alpha
Occup=     2.00000000
           1 -1.455832600185240E-008
           2  3.458896545113266E-009
           3 -7.173181676367982E-009
           4  1.143392116818048E-009
           5 -6.911686719567176E-008
           6  5.567452829119836E-008
           7 -1.342785717039532E-008
           8  1.796379617169990E-008
           9 -3.735002434259872E-009
          10  6.661430935314753E-009
          11  1.250631698473254E-009
          12 -1.992408719068559E-009
          13 -1.043301749035321E-008
          14  3.401192129992254E-009
          15  1.231177542510198E-009
          16  6.115725024982225E-009
          17 -8.263527822346262E-007
          18  3.641878998041896E-007
          19 -1.668572071871881E-007
          20  9.256816626761705E-008
          21 -4.725697658061501E-007
          22  4.073732734820621E-007
          23  4.691441416216937E-007
          24  2.309727677221643E-008
          25  3.609678767844840E-006
          26 -5.163747811472816E-006
          27  2.072068392508668E-007
          28  1.268072941229827E-006
          29  2.187419240869155E-005
          30 -2.268698528816935E-005
          31 -9.823620696964074E-006
          32  1.758525397159993E-005
          33  6.540905906915630E-005
          34 -4.195669139278075E-006
          35 -2.034129434793192E-005
          36  8.218420043646517E-007
          37  8.913450585729071E-005
          38  1.316132072240212E-004
          39  2.006267063136186E-004
          40 -8.005311113002390E-005
          41 -1.761860228467860E-004
          42  3.954113701154194E-004
          43  5.687485944387951E-004
          44 -3.063937376253215E-004
          45 -7.619801888749725E-003
          46  3.655597834090035E-003
          47  2.783771758865657E-003
          48 -5.647475861354896E-003
          49 -7.387816276430638E-002
          50  2.773618646001927E-002
          51  4.816097765895540E-002
          52 -1.557436205876950E-002
          53 -0.965488222826036     
          54 -1.837927582827645E-003
          55  4.895090379171057E-003
          56  1.652453325756383E-003
          57  1.336683861010260E-003
          58 -3.915070401274487E-003
          59  2.578386540264227E-003
          60 -5.427592146508208E-003
          61  2.089714068292013E-003
          62  2.681436373372574E-003
          63 -7.471681478262293E-003
          64  1.757181212293074E-003
          65  6.733904411782810E-003
          66  2.565703524988304E-003
          67 -2.048144480329946E-004
          68  3.496727891105511E-004
          69  6.408648763902119E-004
          70 -1.290051304418708E-004
          71  9.733990764870439E-006
          72  4.410161992684663E-006
          73 -5.025485362481252E-006
          74  2.023608228458688E-006
          75  8.694857704418178E-007
          76  2.625621375571678E-007
          77 -1.127852061655735E-006
          78 -8.943287110211152E-008
          79  1.749792827442960E-008
          80  4.942757210118876E-008
          81 -9.680002771088788E-008
          82  1.485581507962843E-008
          83  5.303427362658796E-008
          84  8.943731742505846E-009
          85 -1.905344025794297E-008
          86  2.679332164793062E-010
          87  5.629585582247671E-007
          88  4.166990352951620E-009
          89 -1.987826952713467E-009
          90 -8.601136476646894E-010
          91  8.338519653133513E-010
          92  5.559197069423493E-009
          93 -6.393049034736845E-009
          94 -1.555383941447163E-008
          95  1.130297150114767E-008
          96 -8.572299726492625E-009
          97  1.272851743056696E-007
          98  1.273316745490984E-007
          99 -8.412305382871604E-008
         100  8.407910275171328E-008
         101  2.053488827345679E-006
         102  1.595419275054019E-006
         103  6.115080484205659E-007
         104  4.307894397079317E-007
         105  1.134208353205164E-008
         106  9.472349110188220E-010
         107  9.846036402037309E-009
         108  2.060724853005092E-009
         109  2.143076697807998E-009
         110 -5.199926239342521E-010
         111  3.909177345670821E-009
         112  2.786313241928048E-008
         113 -1.776606580554092E-010
         114 -1.023882530799815E-007
         115  9.807938711398960E-009
         116 -1.792129963052727E-009
         117 -9.224556016210386E-007
         118 -8.453855219972827E-007
         119 -9.070601281120551E-007
         120 -2.639226588032104E-007
         121 -5.719030544138093E-006