41
 energy: -44.939392849986 gnorm: 0.000515321249 xtb: 6.7.1 (edcfbbe)
C           -3.63204115612940       -1.53354964055325       -0.87897691337378
C           -2.92678217150495       -0.28853410665237       -0.32675659521060
C           -3.26253679822072       -0.14632615578532        1.16005725877234
C           -3.43400775303467        0.94420403152991       -1.08014235487827
C           -1.40397153356227       -0.44884916412312       -0.58216425879018
N           -0.76021492608691       -1.57883966443139        0.09502323520086
C           -0.56878107154164        0.79186985800557       -0.17791911990581
N            0.84437897403872        0.35414261319688       -0.10163794170915
C            1.61919147213095        0.94317937513055        1.01296388168168
C            2.75778523519558        0.02572506109864        1.45598132178517
C            4.09150706719958        0.26098306514580        0.74119960239533
C            3.97867607048319        0.57230044125223       -0.75360332315252
C            2.88207874371419       -0.20691700461669       -1.48028546650970
C            1.51479293901371        0.46646494683132       -1.41518217186880
H           -3.40852221230295       -1.67019101344363       -1.93472152126942
H           -4.70763968065698       -1.42647093734565       -0.77548526149360
H           -3.33708169003328       -2.43157014619406       -0.34025065829042
H           -4.34093807993214       -0.08376486045453        1.27328178367342
H           -2.83785418244866        0.75687738894118        1.59115468533043
H           -2.92857877651962       -1.00458045158255        1.74017126224174
H           -3.14627620260973        0.90681638499409       -2.12807599517242
H           -4.51853733071342        0.97923666699212       -1.03286238676960
H           -3.05420401932212        1.86383357689725       -0.64326076856289
H           -1.27798561843418       -0.61107799909671       -1.65878169669250
H           -0.92584003236208       -2.45028125625866       -0.39250202770539
H           -1.11603182729614       -1.68220609103598        1.04072994830411
H           -0.88454598475109        1.13715649756855        0.80601616771180
H           -0.68691667658540        1.60565868073927       -0.89082779897812
H            0.66469730775418       -0.68803880001650        0.10101416696719
H            1.99684255175209        1.92224678880661        0.71477750274860
H            0.93468767029592        1.08311224476205        1.85111821453193
H            2.43941891700249       -1.01129904628915        1.32818116525014
H            2.92146869282790        0.17047954443209        2.52398019202773
H            4.70337187725212       -0.63040512504766        0.88077963043349
H            4.61742800117469        1.08705236542306        1.22040142737465
H            4.93940027712588        0.34316048666306       -1.21372231368571
H            3.81045314405253        1.64013838888410       -0.90450414335976
H            2.82423195056444       -1.22864282726107       -1.10406359245332
H            3.14444951038354       -0.26788279360647       -2.53725870175044
H            0.85687373547274        0.00708458612972       -2.15458273084119
H            1.61755358661355        1.52770409037022       -1.65767729240147
