[Molden Format]
[Title]
[Atoms] AU
C      1     6 -0.62554290493627E+01 -0.67422411876059E+00 -0.30664329347635E+01
C      2     6 -0.48594802829136E+01  0.55396570722823E+00 -0.84339609979308E+00
C      3     6 -0.52822944221521E+01  0.34149485862659E+01 -0.93424716502606E+00
C      4     6 -0.59295218246554E+01 -0.49394263604217E+00  0.16314823643099E+01
C      5     6 -0.19959688996164E+01  0.18315517665876E-02 -0.11527630330427E+01
N      6     7 -0.12662656336335E+01 -0.26715444267256E+01 -0.10688262488289E+01
C      7     6 -0.31724667247239E+00  0.13066897919650E+01  0.85853776372030E+00
N      8     7  0.21762792863117E+01  0.47012140681773E-01  0.76123192174822E+00
C      9     6  0.34088336645328E+01 -0.28311855651299E+00  0.32400512084599E+01
C     10     6  0.57339767162565E+01 -0.19622888058676E+01  0.29888998060451E+01
C     11     6  0.75898989828021E+01 -0.85136721516285E+00  0.10873112914567E+01
Cl    12    17  0.88126956669423E+01  0.21014030329447E+01  0.22811170238390E+01
C     13     6  0.62647609728701E+01 -0.39623999792794E+00 -0.14289909363904E+01
C     14     6  0.39299874852749E+01  0.12432811953237E+01 -0.10514246071428E+01
H     15     1 -0.82564825937293E+01 -0.23186583461514E+00 -0.29656536415296E+01
H     16     1 -0.55404538302007E+01  0.28567201212352E-01 -0.48609072907407E+01
H     17     1 -0.60693481693539E+01 -0.27215526236082E+01 -0.30374556292902E+01
H     18     1 -0.45370477110890E+01  0.43407934841467E+01  0.74003664823697E+00
H     19     1 -0.44019373814918E+01  0.42382618668931E+01 -0.25981801080228E+01
H     20     1 -0.72937481818069E+01  0.38118215314100E+01 -0.10243038772233E+01
H     21     1 -0.79433225058600E+01 -0.10378646497200E+00  0.17050321189805E+01
H     22     1 -0.50739543452820E+01  0.38722317870293E+00  0.32785060094380E+01
H     23     1 -0.57020340662503E+01 -0.25333326215373E+01  0.17719895124104E+01
H     24     1 -0.14405419179260E+01  0.71342093632869E+00 -0.30168988279586E+01
H     25     1 -0.16166430852423E+01 -0.35507221275334E+01 -0.27305429983149E+01
H     26     1 -0.22452055442472E+01 -0.35986657401876E+01  0.29730327057645E+00
H     27     1 -0.13323094352739E+00  0.33243267225019E+01  0.50937254702761E+00
H     28     1 -0.11248822548711E+01  0.10213892791706E+01  0.27311471820069E+01
H     29     1  0.15583693756863E+01 -0.17474108737684E+01  0.18543390005548E-01
H     30     1  0.20648004464168E+01 -0.11340455669586E+01  0.45510361811604E+01
H     31     1  0.39712848561973E+01  0.15711469504136E+01  0.39516562462164E+01
H     32     1  0.51890195261435E+01 -0.38517758761237E+01  0.23613193894512E+01
H     33     1  0.66296381483695E+01 -0.21399039808009E+01  0.48339594613703E+01
H     34     1  0.92216232099587E+01 -0.20871383923557E+01  0.84645167368483E+00
H     35     1  0.57414203607427E+01 -0.22171225267162E+01 -0.22477124055588E+01
H     36     1  0.75388634188193E+01  0.54820819469631E+00 -0.27413205959574E+01
H     37     1  0.29544878363163E+01  0.15166093541724E+01 -0.28447019945598E+01
H     38     1  0.44990993620438E+01  0.30791476803512E+01 -0.29846135920650E+00
[GTO]
           1 0
 s           4   1.00000000000000     
   51.0493630955799      -0.163120632101274     
   8.79112274068875      -0.199110245810007     
  0.706404222589298       0.318820477536558     
  0.269228134134116       0.127065041842404     
 p           4   1.00000000000000     
   5.82636561408000       0.737164515452096     
   1.51068960187200       0.682163716148503     
  0.532564832880000       0.357830539292537     
  0.212023236906000       5.398303027584788E-002
 
           2 0
 s           4   1.00000000000000     
   51.0493630955799      -0.163120632101274     
   8.79112274068875      -0.199110245810007     
  0.706404222589298       0.318820477536558     
  0.269228134134116       0.127065041842404     
 p           4   1.00000000000000     
   5.82636561408000       0.737164515452096     
   1.51068960187200       0.682163716148503     
  0.532564832880000       0.357830539292537     
  0.212023236906000       5.398303027584788E-002
 
           3 0
 s           4   1.00000000000000     
   51.0493630955799      -0.163120632101274     
   8.79112274068875      -0.199110245810007     
  0.706404222589298       0.318820477536558     
  0.269228134134116       0.127065041842404     
 p           4   1.00000000000000     
   5.82636561408000       0.737164515452096     
   1.51068960187200       0.682163716148503     
  0.532564832880000       0.357830539292537     
  0.212023236906000       5.398303027584788E-002
 
           4 0
 s           4   1.00000000000000     
   51.0493630955799      -0.163120632101274     
   8.79112274068875      -0.199110245810007     
  0.706404222589298       0.318820477536558     
  0.269228134134116       0.127065041842404     
 p           4   1.00000000000000     
   5.82636561408000       0.737164515452096     
   1.51068960187200       0.682163716148503     
  0.532564832880000       0.357830539292537     
  0.212023236906000       5.398303027584788E-002
 
           5 0
 s           4   1.00000000000000     
   51.0493630955799      -0.163120632101274     
   8.79112274068875      -0.199110245810007     
  0.706404222589298       0.318820477536558     
  0.269228134134116       0.127065041842404     
 p           4   1.00000000000000     
   5.82636561408000       0.737164515452096     
   1.51068960187200       0.682163716148503     
  0.532564832880000       0.357830539292537     
  0.212023236906000       5.398303027584788E-002
 
           6 0
 s           4   1.00000000000000     
   63.5940244669410      -0.192343884147216     
   10.9514172315237      -0.234781079249537     
  0.879993102573770       0.375937539017009     
  0.335387152965211       0.149828892718628     
 p           4   1.00000000000000     
   7.29650404814951       0.976586663156674     
   1.89187454507126       0.903722267303458     
  0.666944321108241       0.474049584615364     
  0.265522026741309       7.151606771501186E-002
 
           7 0
 s           4   1.00000000000000     
   51.0493630955799      -0.163120632101274     
   8.79112274068875      -0.199110245810007     
  0.706404222589298       0.318820477536558     
  0.269228134134116       0.127065041842404     
 p           4   1.00000000000000     
   5.82636561408000       0.737164515452096     
   1.51068960187200       0.682163716148503     
  0.532564832880000       0.357830539292537     
  0.212023236906000       5.398303027584788E-002
 
           8 0
 s           4   1.00000000000000     
   63.5940244669410      -0.192343884147216     
   10.9514172315237      -0.234781079249537     
  0.879993102573770       0.375937539017009     
  0.335387152965211       0.149828892718628     
 p           4   1.00000000000000     
   7.29650404814951       0.976586663156674     
   1.89187454507126       0.903722267303458     
  0.666944321108241       0.474049584615364     
  0.265522026741309       7.151606771501186E-002
 
           9 0
 s           4   1.00000000000000     
   51.0493630955799      -0.163120632101274     
   8.79112274068875      -0.199110245810007     
  0.706404222589298       0.318820477536558     
  0.269228134134116       0.127065041842404     
 p           4   1.00000000000000     
   5.82636561408000       0.737164515452096     
   1.51068960187200       0.682163716148503     
  0.532564832880000       0.357830539292537     
  0.212023236906000       5.398303027584788E-002
 
          10 0
 s           4   1.00000000000000     
   51.0493630955799      -0.163120632101274     
   8.79112274068875      -0.199110245810007     
  0.706404222589298       0.318820477536558     
  0.269228134134116       0.127065041842404     
 p           4   1.00000000000000     
   5.82636561408000       0.737164515452096     
   1.51068960187200       0.682163716148503     
  0.532564832880000       0.357830539292537     
  0.212023236906000       5.398303027584788E-002
 
          11 0
 s           4   1.00000000000000     
   51.0493630955799      -0.163120632101274     
   8.79112274068875      -0.199110245810007     
  0.706404222589298       0.318820477536558     
  0.269228134134116       0.127065041842404     
 p           4   1.00000000000000     
   5.82636561408000       0.737164515452096     
   1.51068960187200       0.682163716148503     
  0.532564832880000       0.357830539292537     
  0.212023236906000       5.398303027584788E-002
 
          12 0
 s           4   1.00000000000000     
   9.34674866189868      -0.125552785052236     
   2.63274953955161      -0.254029831967196     
  0.472092932487140       0.305184566430756     
  0.232271649766237       8.559661830788402E-002
 p           4   1.00000000000000     
   8.96653868620652      -0.317209215069455     
  0.926601749794952       0.357031126383567     
  0.418792332287928       0.280771537007085     
  0.202453454537036       4.152131922185704E-002
 d           3   1.00000000000000     
   3.20597745654841        2.13231494102881     
   1.00523897559031       0.971375176087545     
  0.391565355448865       0.129419082352652     
 
          13 0
 s           4   1.00000000000000     
   51.0493630955799      -0.163120632101274     
   8.79112274068875      -0.199110245810007     
  0.706404222589298       0.318820477536558     
  0.269228134134116       0.127065041842404     
 p           4   1.00000000000000     
   5.82636561408000       0.737164515452096     
   1.51068960187200       0.682163716148503     
  0.532564832880000       0.357830539292537     
  0.212023236906000       5.398303027584788E-002
 
          14 0
 s           4   1.00000000000000     
   51.0493630955799      -0.163120632101274     
   8.79112274068875      -0.199110245810007     
  0.706404222589298       0.318820477536558     
  0.269228134134116       0.127065041842404     
 p           4   1.00000000000000     
   5.82636561408000       0.737164515452096     
   1.51068960187200       0.682163716148503     
  0.532564832880000       0.357830539292537     
  0.212023236906000       5.398303027584788E-002
 
          15 0
 s           3   1.00000000000000     
   3.37022769753360       0.273591105889083     
  0.613891182214980       0.264605406538605     
  0.166142911484160       8.246594753408230E-002
 
          16 0
 s           3   1.00000000000000     
   3.37022769753360       0.273591105889083     
  0.613891182214980       0.264605406538605     
  0.166142911484160       8.246594753408230E-002
 
          17 0
 s           3   1.00000000000000     
   3.37022769753360       0.273591105889083     
  0.613891182214980       0.264605406538605     
  0.166142911484160       8.246594753408230E-002
 
          18 0
 s           3   1.00000000000000     
   3.37022769753360       0.273591105889083     
  0.613891182214980       0.264605406538605     
  0.166142911484160       8.246594753408230E-002
 
          19 0
 s           3   1.00000000000000     
   3.37022769753360       0.273591105889083     
  0.613891182214980       0.264605406538605     
  0.166142911484160       8.246594753408230E-002
 
          20 0
 s           3   1.00000000000000     
   3.37022769753360       0.273591105889083     
  0.613891182214980       0.264605406538605     
  0.166142911484160       8.246594753408230E-002
 
          21 0
 s           3   1.00000000000000     
   3.37022769753360       0.273591105889083     
  0.613891182214980       0.264605406538605     
  0.166142911484160       8.246594753408230E-002
 
          22 0
 s           3   1.00000000000000     
   3.37022769753360       0.273591105889083     
  0.613891182214980       0.264605406538605     
  0.166142911484160       8.246594753408230E-002
 
          23 0
 s           3   1.00000000000000     
   3.37022769753360       0.273591105889083     
  0.613891182214980       0.264605406538605     
  0.166142911484160       8.246594753408230E-002
 
          24 0
 s           3   1.00000000000000     
   3.37022769753360       0.273591105889083     
  0.613891182214980       0.264605406538605     
  0.166142911484160       8.246594753408230E-002
 
          25 0
 s           3   1.00000000000000     
   3.37022769753360       0.273591105889083     
  0.613891182214980       0.264605406538605     
  0.166142911484160       8.246594753408230E-002
 
          26 0
 s           3   1.00000000000000     
   3.37022769753360       0.273591105889083     
  0.613891182214980       0.264605406538605     
  0.166142911484160       8.246594753408230E-002
 
          27 0
 s           3   1.00000000000000     
   3.37022769753360       0.273591105889083     
  0.613891182214980       0.264605406538605     
  0.166142911484160       8.246594753408230E-002
 
          28 0
 s           3   1.00000000000000     
   3.37022769753360       0.273591105889083     
  0.613891182214980       0.264605406538605     
  0.166142911484160       8.246594753408230E-002
 
          29 0
 s           3   1.00000000000000     
   3.37022769753360       0.273591105889083     
  0.613891182214980       0.264605406538605     
  0.166142911484160       8.246594753408230E-002
 
          30 0
 s           3   1.00000000000000     
   3.37022769753360       0.273591105889083     
  0.613891182214980       0.264605406538605     
  0.166142911484160       8.246594753408230E-002
 
          31 0
 s           3   1.00000000000000     
   3.37022769753360       0.273591105889083     
  0.613891182214980       0.264605406538605     
  0.166142911484160       8.246594753408230E-002
 
          32 0
 s           3   1.00000000000000     
   3.37022769753360       0.273591105889083     
  0.613891182214980       0.264605406538605     
  0.166142911484160       8.246594753408230E-002
 
          33 0
 s           3   1.00000000000000     
   3.37022769753360       0.273591105889083     
  0.613891182214980       0.264605406538605     
  0.166142911484160       8.246594753408230E-002
 
          34 0
 s           3   1.00000000000000     
   3.37022769753360       0.273591105889083     
  0.613891182214980       0.264605406538605     
  0.166142911484160       8.246594753408230E-002
 
          35 0
 s           3   1.00000000000000     
   3.37022769753360       0.273591105889083     
  0.613891182214980       0.264605406538605     
  0.166142911484160       8.246594753408230E-002
 
          36 0
 s           3   1.00000000000000     
   3.37022769753360       0.273591105889083     
  0.613891182214980       0.264605406538605     
  0.166142911484160       8.246594753408230E-002
 
          37 0
 s           3   1.00000000000000     
   3.37022769753360       0.273591105889083     
  0.613891182214980       0.264605406538605     
  0.166142911484160       8.246594753408230E-002
 
          38 0
 s           3   1.00000000000000     
   3.37022769753360       0.273591105889083     
  0.613891182214980       0.264605406538605     
  0.166142911484160       8.246594753408230E-002
 
[MO]
Sym=     1a
Ene=   -1.16152658541378     
Spin= Alpha
Occup=     2.00000000
           1 -1.277041506089383E-008
           2 -2.996536445371869E-008
           3 -8.810480724152475E-009
           4 -3.119164199566414E-008
           5 -3.443252207818016E-008
           6 -1.532958094382659E-007
           7  2.104542240768000E-007
           8  7.555437526889782E-008
           9 -9.588330170297825E-010
          10  5.562402590598006E-007
          11 -8.737735199337196E-008
          12  2.276708608421610E-008
          13 -3.652755745149477E-008
          14  2.735897225339327E-007
          15 -9.689729029888477E-010
          16 -1.140265520423403E-008
          17  1.733331806087009E-006
          18 -3.214791636054401E-006
          19 -1.916545143935973E-006
          20 -2.432378631739922E-006
          21  5.891362120139266E-006
          22  4.720938892275721E-006
          23  1.108912796628691E-006
          24  1.637201424498019E-006
          25 -1.996584140119724E-005
          26 -7.721088769142993E-005
          27  3.402075098208087E-006
          28 -6.989256559684174E-006
          29 -1.765342265734402E-004
          30 -3.356687514317629E-004
          31 -1.232400918504671E-004
          32 -8.293603445415488E-005
          33 -9.370667577778643E-004
          34 -1.311308324596334E-003
          35 -7.900086339502298E-004
          36 -3.805710159597725E-005
          37 -2.671308215228171E-003
          38 -3.043280506580003E-003
          39 -2.355107282154521E-003
          40  1.393235579881173E-003
          41 -3.797657732148062E-002
          42 -2.106649146727365E-002
          43 -4.987432222256983E-002
          44 -2.019683173496717E-002
          45 -0.980391466097831     
          46  3.355959391364188E-002
          47  3.250381814689994E-003
          48  5.443908495635768E-003
          49 -2.370540413528348E-003
          50  2.875968187465601E-003
          51 -5.054277739372527E-004
          52  1.647581232279470E-003
          53  3.884667947630749E-004
          54  1.829857530028882E-003
          55 -2.672579103475430E-003
          56 -2.490986690246895E-003
          57 -7.461325278691034E-004
          58 -3.150546286884826E-003
          59 -9.574845951226559E-004
          60 -1.245316836805360E-003
          61 -5.590777636283302E-004
          62 -7.535618431957617E-004
          63 -1.316452471812211E-008
          64  6.894747465259321E-008
          65 -6.337419467795064E-008
          66  1.746593471442025E-006
          67  5.881491495205906E-007
          68 -5.134893873603804E-008
          69 -5.241574433874492E-008
          70  1.484426294318223E-006
          71  5.679160446002257E-008
          72 -4.289802902643049E-006
          73  1.612917665674975E-006
          74  1.626252412824916E-006
          75 -7.600410588238741E-005
          76 -4.462012857461426E-005
          77 -1.022210591674960E-004
          78 -3.027513994208484E-004
          79  2.853008355530702E-003
          80 -1.117340612100221E-003
          81  3.380508560678981E-003
          82  7.521545712010368E-003
          83 -1.116591063526416E-003
          84  3.386643954388279E-003
          85 -3.108215726178231E-004
          86  2.951846228393361E-003
Sym=     2a
Ene=  -0.847847657110219     
Spin= Alpha
Occup=     2.00000000
           1 -6.527851623984645E-004
           2  2.474911593604628E-004
           3 -1.898926570194328E-005
           4  7.064186004637517E-005
           5  2.719890267279920E-003
           6  6.787917993922843E-003
           7 -9.100873880333218E-004
           8  1.236445861937768E-003
           9 -1.595558599550719E-004
          10  7.270646894685225E-004
          11 -4.499111025852714E-004
          12  7.781399538187393E-005
          13  4.975633998240841E-004
          14  1.225822459464523E-003
          15  7.521231381627856E-005
          16 -3.210004022234557E-004
          17  6.512916900422377E-002
          18  4.392142870876269E-002
          19  1.295214129977560E-003
          20  2.669193806731917E-002
          21  3.152542989739516E-002
          22  1.490825357491813E-002
          23  3.412279278374321E-002
          24  1.213428437036623E-002
          25  0.217227229612525     
          26  0.120493244485079     
          27 -6.358591386692149E-002
          28 -1.131992409973913E-002
          29  0.553035988886458     
          30  3.836546444946568E-003
          31  6.990882446981311E-002
          32  2.042249632954757E-002
          33  0.200807989484569     
          34 -5.382912457026499E-002
          35  1.996667292532616E-002
          36 -0.120854654025836     
          37  5.034495720660900E-002
          38 -3.162388257715702E-002
          39  2.414211756743538E-002
          40 -1.803716357769251E-002
          41  2.846644794032313E-002
          42 -2.614681630436081E-002
          43  1.105049576845623E-003
          44 -2.812094449428051E-003
          45 -7.686616135298549E-003
          46 -5.324791434712162E-003
          47 -3.550600989669225E-003
          48 -1.904821955580990E-003
          49 -4.571441327129839E-004
          50  5.991029809009959E-004
          51 -1.419588481880120E-004
          52  4.896945176540416E-005
          53 -9.408428466545821E-006
          54  3.560398809348059E-004
          55  5.069312067614019E-002
          56 -3.675627780904986E-002
          57  1.006218442353630E-002
          58  2.199378519656931E-002
          59  0.203367326655635     
          60 -8.099037658905345E-002
          61 -5.611599242084150E-002
          62  9.194938020062982E-002
          63  1.339542060275051E-005
          64 -1.929810905347559E-005
          65 -9.275491367985855E-005
          66  1.924648210149590E-005
          67 -4.388865022498001E-006
          68 -2.090719202839700E-005
          69 -2.431898598872619E-005
          70  5.754903481836011E-004
          71  1.255625718486019E-004
          72  1.329481266219241E-002
          73 -1.900856407459374E-003
          74  1.760181788931353E-003
          75  4.029079632099399E-002
          76  4.090424806232743E-002
          77  0.116202909438797     
          78  3.693739375916624E-002
          79  3.675218866234393E-002
          80  1.013411125742121E-002
          81  3.704007816002199E-003
          82  1.831449506623591E-003
          83  1.023639277726751E-002
          84  3.742195058528569E-003
          85  3.752742030161426E-002
          86  3.722656146612443E-002
Sym=     3a
Ene=  -0.822836116458066     
Spin= Alpha
Occup=     2.00000000
           1  3.578060316045509E-003
           2  5.165300875765229E-003
           3  1.143834957680474E-003
           4  3.515293209370754E-003
           5  3.829851337814198E-002
           6  3.468794151592150E-002
           7 -5.285513811024808E-003
           8  4.097494425535666E-003
           9  6.975441693852835E-003
          10  6.057877241627862E-003
          11 -6.531783978776138E-003
          12  1.046979866759459E-003
          13  8.814094762494253E-003
          14  8.366297182131761E-003
          15  1.746131075653566E-003
          16 -5.067434072347181E-003
          17  0.218435859873115     
          18  7.673160359861160E-002
          19 -4.151307730899670E-003
          20  6.190208146366861E-002
          21  0.108486723215608     
          22  5.808422211644590E-003
          23  9.615109350018163E-002
          24  2.128480584877868E-002
          25  0.331457933209980     
          26  3.105146589435787E-002
          27 -8.450241668564386E-002
          28 -5.453556646007837E-002
          29 -8.170167661650692E-003
          30 -0.369166601846654     
          31  5.739742965798725E-002
          32 -8.175495050821170E-002
          33 -0.227124475191265     
          34 -5.354998706453239E-002
          35  1.882171416671733E-002
          36  8.506161283250413E-002
          37 -0.154027975015792     
          38  4.760867408536982E-002
          39 -5.079209619129243E-002
          40  3.688211971074222E-002
          41 -0.107601215824350     
          42  6.830498146936478E-002
          43  4.791236250008272E-003
          44  6.512638094938731E-003
          45  2.419328878691298E-002
          46  1.636508728645216E-002
          47  1.604926189881293E-002
          48  7.136487764106886E-003
          49  9.794305981505023E-004
          50 -1.688886733953180E-003
          51  7.094561358026780E-004
          52 -6.397459475341525E-004
          53 -2.321369346482004E-004
          54 -1.248564451982615E-003
          55 -0.132340521571353     
          56  4.371912316859346E-002
          57 -1.353705759143065E-002
          58 -4.830332760067775E-002
          59 -0.154626194469919     
          60 -5.582384782211936E-002
          61  5.969036959879449E-002
          62 -5.954198211110872E-002
          63  1.166485150506305E-004
          64  8.562374276104568E-004
          65  9.303464032525107E-004
          66  2.808782402136819E-003
          67  1.592251714342384E-003
          68  1.474154325946052E-004
          69  2.482572810414171E-004
          70  4.012449859779572E-003
          71  2.231147416272239E-003
          72  4.800353508520086E-002
          73  6.681653726204763E-003
          74  1.645143903753607E-002
          75  6.858273494794931E-002
          76  7.508592792453442E-002
          77  3.954930544401439E-002
          78 -3.379540635561085E-002
          79 -4.963305040346348E-002
          80 -3.435633968531064E-002
          81 -2.185437257961124E-002
          82 -1.361770966682421E-002
          83 -2.900909607905142E-002
          84 -1.829695379586440E-002
          85 -9.922989304305274E-003
          86 -3.537453231195870E-002
Sym=     4a
Ene=  -0.809905663647049     
Spin= Alpha
Occup=     2.00000000
           1  1.051091008277784E-003
           2  1.001857019274405E-003
           3  3.106427462250913E-004
           4  3.086749879379191E-004
           5  3.134637880147188E-003
           6  3.116761410716886E-003
           7  2.097984086716722E-004
           8 -2.406111587645399E-003
           9  1.183865432864292E-003
          10  9.184273059000296E-004
          11 -6.955002435825322E-004
          12 -3.659452722065236E-004
          13 -1.314006918514937E-003
          14 -7.519955082963795E-004
          15 -1.316069169745319E-004
          16 -4.264544043930566E-004
          17  2.618939973724450E-002
          18  1.228139034810027E-002
          19  4.082373868457139E-003
          20 -1.277235287835565E-002
          21  8.504090475901534E-003
          22  1.393609872470122E-003
          23  9.680668091077028E-003
          24 -9.252871725463270E-003
          25 -4.375260864277905E-002
          26 -5.848855182181513E-003
          27  3.610552325173702E-002
          28 -8.992778571288378E-002
          29 -1.976000328483127E-002
          30  0.101347200950877     
          31  0.122438502915996     
          32 -0.400640741198316     
          33 -0.328889189208546     
          34  7.641379632070647E-002
          35  2.487570415657041E-002
          36  4.506047012422358E-002
          37 -9.893366495598603E-002
          38  6.748169210433891E-002
          39 -2.944580642716007E-002
          40 -1.391885073351817E-002
          41  2.836758100379807E-002
          42 -9.893508909317126E-003
          43  1.262439477714147E-002
          44 -4.360888055059423E-002
          45 -5.686941553801603E-003
          46 -3.019832429977199E-003
          47 -2.073921245009871E-003
          48 -8.849126733376759E-003
          49 -2.318776099658236E-004
          50  5.813725002211680E-004
          51 -3.494948902553444E-004
          52  2.489910680971751E-004
          53  2.701622460707395E-004
          54  7.149122256887962E-005
          55  0.163899588186388     
          56 -7.972986856835580E-002
          57  4.054216074046200E-002
          58  1.449983427729424E-002
          59  0.377618097863368     
          60 -5.148842595929689E-002
          61 -6.501874491881345E-002
          62  1.057247735720044E-002
          63  3.272465945824952E-005
          64  3.892229512198983E-004
          65  2.065362592816634E-004
          66  2.999522241556889E-005
          67  6.294724749878152E-004
          68  4.940481180952756E-005
          69 -1.323447181495122E-005
          70 -1.818369910345796E-003
          71 -3.056872700472416E-004
          72  1.804803201094167E-002
          73  3.371137007223136E-003
          74 -3.563364407401818E-003
          75  8.676742781646369E-003
          76 -5.114886144746250E-002
          77 -4.898221827521960E-004
          78 -0.113453061953057     
          79 -7.136825480134966E-002
          80 -2.474068330760520E-002
          81 -2.034568786026835E-002
          82  4.612675051118321E-003
          83  4.062353485828214E-002
          84  3.124817863627009E-002
          85  0.117714270057064     
          86  8.141910771005662E-002
Sym=     5a
Ene=  -0.792495629232587     
Spin= Alpha
Occup=     2.00000000
           1  3.779626041852926E-002
           2  2.581788418221686E-002
           3  7.041590146393719E-003
           4  2.076350474088055E-002
           5  0.148351747363069     
           6  7.312281394087973E-002
           7 -2.477895750057473E-002
           8 -2.565627328768579E-003
           9  3.140288273278898E-002
          10  1.375586327130517E-002
          11 -2.661530952513800E-002
          12  8.623195025642399E-004
          13  4.107483993666875E-002
          14  2.384348481069174E-002
          15  5.662689629653313E-003
          16 -2.465331594165559E-002
          17  0.355914369099733     
          18  1.277685092264109E-003
          19 -7.784848998151732E-002
          20  2.199785005194678E-002
          21  0.263995199863923     
          22 -4.311733313535273E-002
          23  0.147824447345799     
          24  5.999453428304578E-003
          25  1.336776270428767E-002
          26 -0.149880330524972     
          27 -5.152144157889416E-002
          28 -6.856862482324189E-002
          29 -0.152531379876888     
          30  3.170836715590984E-002
          31 -0.152555103285784     
          32 -1.618472306298626E-002
          33  7.339291859838655E-002
          34  8.905916280839357E-002
          35 -7.640427037267683E-002
          36  1.802788039266923E-002
          37  0.225460810544073     
          38 -3.734258788984604E-003
          39  3.460613526492126E-002
          40 -4.730128631559443E-002
          41  0.216597158795464     
          42 -8.139453342415598E-002
          43 -2.950475285889621E-002
          44 -9.125850515186464E-003
          45 -3.623959080918847E-002
          46 -2.329851185325189E-002
          47 -3.830305696251430E-002
          48 -1.441495824085084E-002
          49 -1.144832773697118E-003
          50  2.784727027313393E-003
          51 -1.639894253616276E-003