[Molden Format]
[Title]
[Atoms] AU
C      1     6 -0.57430820412330E+01  0.80395760763928E-02 -0.16919395971067E+01
C      2     6 -0.35935068170865E+01  0.85275782488960E+00  0.56592414641236E-01
C      3     6 -0.35208896144055E+01  0.37437458141089E+01  0.14355554675882E+00
C      4     6 -0.40643418561318E+01 -0.18655459116490E+00  0.27154290361094E+01
C      5     6 -0.10718460721130E+01 -0.10343838825034E+00 -0.10610790840465E+01
N      6     7 -0.87355307316942E+00 -0.29203125037006E+01 -0.99364947895381E+00
C      7     6  0.13651551469185E+01  0.79596033624776E+00  0.26726193889596E+00
N      8     7  0.33917969752466E+01 -0.86761518133923E+00 -0.56564204593764E+00
C      9     6  0.56910563415026E+01 -0.11030894640785E+01  0.99948817662395E+00
C     10     6  0.73011621909894E+01 -0.89366791167772E+00 -0.14023211566974E+01
F     11     9  0.91604566550835E+01  0.82913041877614E+00 -0.13688525863145E+01
F     12     9  0.83280987453596E+01 -0.30932486830701E+01 -0.21717983146067E+01
C     13     6  0.48827142894552E+01 -0.15403041015788E+00 -0.28174193004828E+01
H     14     1 -0.59217827911191E+01 -0.20388213859628E+01 -0.17688183047050E+01
H     15     1 -0.54683968755880E+01  0.72307542000267E+00 -0.35981702962788E+01
H     16     1 -0.75266135566341E+01  0.75145105944625E+00 -0.10015223036177E+01
H     17     1 -0.30005039738178E+01  0.45217825789176E+01 -0.16843894874652E+01
H     18     1 -0.53762289067591E+01  0.44705130369389E+01  0.63157907428563E+00
H     19     1 -0.21918706704606E+01  0.44151120260720E+01  0.15552888998517E+01
H     20     1 -0.25053300124587E+01  0.20944796454170E+00  0.39914339460413E+01
H     21     1 -0.57299601064961E+01  0.72533658907418E+00  0.34948865623447E+01
H     22     1 -0.44495710023380E+01 -0.22094933273596E+01  0.27192806493556E+01
H     23     1 -0.97314630703000E+00  0.47236128677974E+00 -0.30446238138597E+01
H     24     1 -0.16900100565668E+01 -0.37954411869208E+01 -0.25057707658438E+01
H     25     1 -0.16513844109036E+01 -0.35929925463408E+01  0.65027875614441E+00
H     26     1  0.11862421731832E+01  0.59812669264067E+00  0.23123409145632E+01
H     27     1  0.17334539829029E+01  0.27814804913358E+01 -0.16999061338995E+00
H     28     1  0.11540160731721E+01 -0.31012413810101E+01 -0.95793283900162E+00
H     29     1  0.58294976167374E+01 -0.28961269445575E+01  0.20036828041179E+01
H     30     1  0.60203143859402E+01  0.47310752537600E+00  0.22878402318470E+01
H     31     1  0.48368125655708E+01  0.18596717586831E+01 -0.32670215169753E+01
H     32     1  0.44712410022467E+01 -0.12750264943232E+01 -0.44947784995603E+01
[GTO]
           1 0
 s           4   1.00000000000000     
   51.0493630955799      -0.163120632101274     
   8.79112274068875      -0.199110245810007     
  0.706404222589298       0.318820477536558     
  0.269228134134116       0.127065041842404     
 p           4   1.00000000000000     
   5.82636561408000       0.737164515452096     
   1.51068960187200       0.682163716148503     
  0.532564832880000       0.357830539292537     
  0.212023236906000       5.398303027584788E-002
 
           2 0
 s           4   1.00000000000000     
   51.0493630955799      -0.163120632101274     
   8.79112274068875      -0.199110245810007     
  0.706404222589298       0.318820477536558     
  0.269228134134116       0.127065041842404     
 p           4   1.00000000000000     
   5.82636561408000       0.737164515452096     
   1.51068960187200       0.682163716148503     
  0.532564832880000       0.357830539292537     
  0.212023236906000       5.398303027584788E-002
 
           3 0
 s           4   1.00000000000000     
   51.0493630955799      -0.163120632101274     
   8.79112274068875      -0.199110245810007     
  0.706404222589298       0.318820477536558     
  0.269228134134116       0.127065041842404     
 p           4   1.00000000000000     
   5.82636561408000       0.737164515452096     
   1.51068960187200       0.682163716148503     
  0.532564832880000       0.357830539292537     
  0.212023236906000       5.398303027584788E-002
 
           4 0
 s           4   1.00000000000000     
   51.0493630955799      -0.163120632101274     
   8.79112274068875      -0.199110245810007     
  0.706404222589298       0.318820477536558     
  0.269228134134116       0.127065041842404     
 p           4   1.00000000000000     
   5.82636561408000       0.737164515452096     
   1.51068960187200       0.682163716148503     
  0.532564832880000       0.357830539292537     
  0.212023236906000       5.398303027584788E-002
 
           5 0
 s           4   1.00000000000000     
   51.0493630955799      -0.163120632101274     
   8.79112274068875      -0.199110245810007     
  0.706404222589298       0.318820477536558     
  0.269228134134116       0.127065041842404     
 p           4   1.00000000000000     
   5.82636561408000       0.737164515452096     
   1.51068960187200       0.682163716148503     
  0.532564832880000       0.357830539292537     
  0.212023236906000       5.398303027584788E-002
 
           6 0
 s           4   1.00000000000000     
   63.5940244669410      -0.192343884147216     
   10.9514172315237      -0.234781079249537     
  0.879993102573770       0.375937539017009     
  0.335387152965211       0.149828892718628     
 p           4   1.00000000000000     
   7.29650404814951       0.976586663156674     
   1.89187454507126       0.903722267303458     
  0.666944321108241       0.474049584615364     
  0.265522026741309       7.151606771501186E-002
 
           7 0
 s           4   1.00000000000000     
   51.0493630955799      -0.163120632101274     
   8.79112274068875      -0.199110245810007     
  0.706404222589298       0.318820477536558     
  0.269228134134116       0.127065041842404     
 p           4   1.00000000000000     
   5.82636561408000       0.737164515452096     
   1.51068960187200       0.682163716148503     
  0.532564832880000       0.357830539292537     
  0.212023236906000       5.398303027584788E-002
 
           8 0
 s           4   1.00000000000000     
   63.5940244669410      -0.192343884147216     
   10.9514172315237      -0.234781079249537     
  0.879993102573770       0.375937539017009     
  0.335387152965211       0.149828892718628     
 p           4   1.00000000000000     
   7.29650404814951       0.976586663156674     
   1.89187454507126       0.903722267303458     
  0.666944321108241       0.474049584615364     
  0.265522026741309       7.151606771501186E-002
 
           9 0
 s           4   1.00000000000000     
   51.0493630955799      -0.163120632101274     
   8.79112274068875      -0.199110245810007     
  0.706404222589298       0.318820477536558     
  0.269228134134116       0.127065041842404     
 p           4   1.00000000000000     
   5.82636561408000       0.737164515452096     
   1.51068960187200       0.682163716148503     
  0.532564832880000       0.357830539292537     
  0.212023236906000       5.398303027584788E-002
 
          10 0
 s           4   1.00000000000000     
   51.0493630955799      -0.163120632101274     
   8.79112274068875      -0.199110245810007     
  0.706404222589298       0.318820477536558     
  0.269228134134116       0.127065041842404     
 p           4   1.00000000000000     
   5.82636561408000       0.737164515452096     
   1.51068960187200       0.682163716148503     
  0.532564832880000       0.357830539292537     
  0.212023236906000       5.398303027584788E-002
 
          11 0
 s           4   1.00000000000000     
   67.8191594740697      -0.201850789245403     
   11.6790204412661      -0.246385510808000     
  0.938459125048083       0.394518855091218     
  0.357670001280168       0.157234426148285     
 p           4   1.00000000000000     
   9.58240403549692        1.37296780219284     
   2.48457427772447        1.27052889614703     
  0.875889317934415       0.666458841672068     
  0.348706630431394       0.100543312761176     
 
          12 0
 s           4   1.00000000000000     
   67.8191594740697      -0.201850789245403     
   11.6790204412661      -0.246385510808000     
  0.938459125048083       0.394518855091218     
  0.357670001280168       0.157234426148285     
 p           4   1.00000000000000     
   9.58240403549692        1.37296780219284     
   2.48457427772447        1.27052889614703     
  0.875889317934415       0.666458841672068     
  0.348706630431394       0.100543312761176     
 
          13 0
 s           4   1.00000000000000     
   51.0493630955799      -0.163120632101274     
   8.79112274068875      -0.199110245810007     
  0.706404222589298       0.318820477536558     
  0.269228134134116       0.127065041842404     
 p           4   1.00000000000000     
   5.82636561408000       0.737164515452096     
   1.51068960187200       0.682163716148503     
  0.532564832880000       0.357830539292537     
  0.212023236906000       5.398303027584788E-002
 
          14 0
 s           3   1.00000000000000     
   3.37022769753360       0.273591105889083     
  0.613891182214980       0.264605406538605     
  0.166142911484160       8.246594753408230E-002
 
          15 0
 s           3   1.00000000000000     
   3.37022769753360       0.273591105889083     
  0.613891182214980       0.264605406538605     
  0.166142911484160       8.246594753408230E-002
 
          16 0
 s           3   1.00000000000000     
   3.37022769753360       0.273591105889083     
  0.613891182214980       0.264605406538605     
  0.166142911484160       8.246594753408230E-002
 
          17 0
 s           3   1.00000000000000     
   3.37022769753360       0.273591105889083     
  0.613891182214980       0.264605406538605     
  0.166142911484160       8.246594753408230E-002
 
          18 0
 s           3   1.00000000000000     
   3.37022769753360       0.273591105889083     
  0.613891182214980       0.264605406538605     
  0.166142911484160       8.246594753408230E-002
 
          19 0
 s           3   1.00000000000000     
   3.37022769753360       0.273591105889083     
  0.613891182214980       0.264605406538605     
  0.166142911484160       8.246594753408230E-002
 
          20 0
 s           3   1.00000000000000     
   3.37022769753360       0.273591105889083     
  0.613891182214980       0.264605406538605     
  0.166142911484160       8.246594753408230E-002
 
          21 0
 s           3   1.00000000000000     
   3.37022769753360       0.273591105889083     
  0.613891182214980       0.264605406538605     
  0.166142911484160       8.246594753408230E-002
 
          22 0
 s           3   1.00000000000000     
   3.37022769753360       0.273591105889083     
  0.613891182214980       0.264605406538605     
  0.166142911484160       8.246594753408230E-002
 
          23 0
 s           3   1.00000000000000     
   3.37022769753360       0.273591105889083     
  0.613891182214980       0.264605406538605     
  0.166142911484160       8.246594753408230E-002
 
          24 0
 s           3   1.00000000000000     
   3.37022769753360       0.273591105889083     
  0.613891182214980       0.264605406538605     
  0.166142911484160       8.246594753408230E-002
 
          25 0
 s           3   1.00000000000000     
   3.37022769753360       0.273591105889083     
  0.613891182214980       0.264605406538605     
  0.166142911484160       8.246594753408230E-002
 
          26 0
 s           3   1.00000000000000     
   3.37022769753360       0.273591105889083     
  0.613891182214980       0.264605406538605     
  0.166142911484160       8.246594753408230E-002
 
          27 0
 s           3   1.00000000000000     
   3.37022769753360       0.273591105889083     
  0.613891182214980       0.264605406538605     
  0.166142911484160       8.246594753408230E-002
 
          28 0
 s           3   1.00000000000000     
   3.37022769753360       0.273591105889083     
  0.613891182214980       0.264605406538605     
  0.166142911484160       8.246594753408230E-002
 
          29 0
 s           3   1.00000000000000     
   3.37022769753360       0.273591105889083     
  0.613891182214980       0.264605406538605     
  0.166142911484160       8.246594753408230E-002
 
          30 0
 s           3   1.00000000000000     
   3.37022769753360       0.273591105889083     
  0.613891182214980       0.264605406538605     
  0.166142911484160       8.246594753408230E-002
 
          31 0
 s           3   1.00000000000000     
   3.37022769753360       0.273591105889083     
  0.613891182214980       0.264605406538605     
  0.166142911484160       8.246594753408230E-002
 
          32 0
 s           3   1.00000000000000     
   3.37022769753360       0.273591105889083     
  0.613891182214980       0.264605406538605     
  0.166142911484160       8.246594753408230E-002
 
[MO]
Sym=     1a
Ene=  -0.959687311894499     
Spin= Alpha
Occup=     2.00000000
           1  3.649116522197420E-007
           2 -2.538606436434739E-006
           3 -2.779104936241766E-007
           4 -7.740126660905771E-007
           5 -1.644101856868812E-005
           6 -2.927362157825284E-005
           7  9.400476026625786E-006
           8  5.748914317505388E-006
           9 -1.099836450043825E-006
          10 -3.137438372798767E-006
          11  3.507919349356546E-006
          12  4.955981620971406E-007
          13 -2.097491835048355E-006
          14 -3.952910181673192E-006
          15 -1.405219850279923E-007
          16  3.494673443124446E-006
          17 -3.806951929287929E-004
          18 -2.666293130354991E-004
          19  6.045140490626932E-005
          20 -6.049931973987604E-005
          21 -1.983452064647234E-004
          22 -2.049417443642403E-004
          23 -2.425235420816725E-004
          24 -3.122380115559381E-005
          25 -1.236298536512749E-003
          26 -1.539394105586380E-004
          27  4.532041815905722E-004
          28  1.697845275881945E-004
          29 -1.880314616043611E-004
          30  6.059848424398488E-003
          31 -9.984579842302016E-004
          32 -1.481766747056638E-003
          33  1.500288256825555E-002
          34  1.843915173160763E-002
          35 -8.500033014083067E-004
          36 -1.934243633372730E-002
          37  0.243449502890889     
          38  0.149042849690570     
          39 -3.704552326314986E-002
          40 -4.178640544466143E-002
          41  0.556936423546101     
          42  9.592230993013075E-004
          43  4.902811758318737E-003
          44  4.089817144391082E-004
          45  0.620349755124909     
          46 -2.510559296929435E-003
          47 -1.045715869629510E-002
          48 -2.945799395606070E-003
          49  1.524734203574554E-002
          50  2.462463095336789E-002
          51 -7.740364280144994E-003
          52  8.120038013243732E-003
          53 -1.684283283971385E-008
          54 -1.038617314481695E-006
          55 -7.555908286860276E-007
          56 -6.768895579905335E-007
          57 -6.276642792545678E-007
          58 -1.949328682199579E-006
          59 -3.191941540592756E-006
          60 -3.955703022278873E-007
          61 -1.027873189204551E-008
          62  8.589684600706365E-006
          63  6.576589906819104E-007
          64 -9.874793683312381E-006
          65  6.808494286362301E-005
          66  5.729422567015624E-005
          67  3.632041204303167E-005
          68 -8.422715073006129E-005
          69  5.577252532521888E-004
          70  4.898175911941013E-004
          71 -1.637850579496757E-004
Sym=     2a
Ene=  -0.951292705566819     
Spin= Alpha
Occup=     2.00000000
           1  4.116869162226884E-008
           2 -1.029865610354376E-006
           3  6.896442283665070E-008
           4 -3.652504019811307E-007
           5 -7.075073912520962E-006
           6 -1.183166905207551E-005
           7  3.350766829345512E-006
           8  1.758744570460240E-006
           9 -7.410334167510860E-007
          10 -1.666671151444763E-006
          11  1.561676476424753E-006
          12  2.259865024313713E-007
          13 -9.042090575914239E-007
          14 -1.655275579250315E-006
          15  4.244743066446012E-008
          16  1.554484903958897E-006
          17 -1.180638790701620E-004
          18 -8.615438238712000E-005
          19 -1.784972723880755E-005
          20 -4.030721317861589E-005
          21 -3.705156714439487E-006
          22  5.729405794033224E-005
          23 -4.912713009770782E-005
          24 -2.154277105864742E-005
          25 -7.085409260043239E-004
          26 -2.793557465527924E-004
          27  6.747295016798591E-005
          28  7.580860267555881E-005
          29  2.413186703558177E-003
          30  2.925548433102024E-003
          31 -4.338600090291940E-003
          32 -1.770228411002950E-003
          33  1.217588490236578E-003
          34 -3.447352492908408E-003
          35 -1.369753670324911E-002
          36 -3.227175577667948E-003
          37 -1.249063661165890E-002
          38 -6.248651427271621E-002
          39 -0.245658878720241     
          40 -4.811433964788775E-002
          41 -0.647808004494029     
          42 -8.909410154063020E-004
          43 -2.778652191445852E-002
          44 -6.100617312265837E-003
          45  0.589217247456671     
          46 -1.107090675888241E-002
          47 -2.838690592991500E-002
          48 -5.522804506461838E-003
          49  1.278219928232630E-003
          50 -3.351516293930180E-003
          51 -1.418664851752946E-002
          52 -2.324772844820697E-003
          53 -4.832575102378725E-007
          54 -1.952024656117629E-007
          55 -2.314879585309016E-007
          56 -2.236708907697188E-007
          57 -1.920590582928637E-007
          58 -1.091326614066239E-006
          59 -1.269606686474037E-006
          60 -9.762870069666667E-008
          61 -3.663759615651858E-007
          62 -1.182743315231523E-005
          63  1.797685324427940E-006
          64 -3.764348265155768E-006
          65 -1.015985095980861E-005
          66  4.741321030518373E-005
          67  9.625193153898259E-005
          68 -1.992826903599355E-005
          69  6.679709119548999E-006
          70 -4.283726313668847E-005
          71  7.529139567013952E-005
Sym=     3a
Ene=  -0.869918287004670     
Spin= Alpha
Occup=     2.00000000
           1 -1.188841867236230E-002
           2 -1.411901977624844E-002
           3  2.464575463721811E-003
           4 -4.164129597233071E-003
           5 -6.172249331734806E-002
           6 -4.290757996100911E-002
           7  3.457932001989585E-002
           8  1.533161834825710E-002
           9 -3.409228389316949E-003
          10 -2.792402447091915E-003
          11  7.478558943531266E-003
          12  9.922171685562669E-004
          13 -1.511264722749569E-002
          14 -9.527707727545721E-003
          15  2.756212544323248E-003
          16  1.381213688019601E-002
          17 -0.315773606225643     
          18 -2.945320578515749E-002
          19  0.156101971326530     
          20 -1.927610634724925E-002
          21 -0.535307319932371     
          22  5.450915201026649E-004
          23 -0.164165586437348     
          24 -5.836992535560944E-003
          25 -0.119606607712402     
          26  4.451802761672995E-002
          27  6.277272925718705E-002
          28  3.611407658100462E-002
          29 -5.693635642451091E-002
          30  7.189138659562182E-002
          31 -4.504772553087144E-003
          32 -1.664164746072440E-003
          33  8.675487325848066E-003
          34  5.134037591443340E-003
          35  3.717272564682874E-004
          36 -4.068940076685750E-003
          37  8.151683068280045E-003
          38 -7.256920777621646E-003
          39  8.440074312258481E-004
          40  2.664768162945880E-003
          41 -4.625068110595884E-003
          42 -1.741764311979408E-003
          43 -4.753823420941233E-004
          44  3.412882422024171E-004
          45 -5.251398977611911E-003
          46 -1.560469196313167E-003
          47  1.107835095982464E-003
          48  7.259192427587496E-004
          49  3.366625065103856E-004
          50  1.196932297122341E-002
          51 -1.235426749605265E-004
          52 -4.381590173655733E-004
          53 -5.834576632097886E-003
          54 -1.583146954197162E-003
          55 -2.205172776104101E-004
          56 -5.276716799422279E-004
          57 -2.153772453628890E-004
          58 -6.595002634426112E-004
          59 -3.195742057347963E-003
          60 -2.762618291106324E-004
          61 -7.871589478863541E-003
          62 -6.110522929724615E-002
          63 -0.123281673297089     
          64 -0.128350706030940     
          65 -2.116048642216061E-002
          66 -1.190915423236059E-002
          67 -0.136912509275292     
          68  1.183021103262276E-003
          69  1.317347484782605E-003
          70 -2.326437480214685E-004
          71 -8.728078675853538E-004
Sym=     4a
Ene=  -0.844409245565978     
Spin= Alpha
Occup=     2.00000000
           1 -2.465179950549110E-003
           2 -1.955727829147798E-003
           3  8.342772281898468E-005
           4 -8.265152510870886E-004
           5 -8.843248256509381E-003
           6 -2.520249102256827E-003
           7  2.534605011040038E-003
           8  1.306210869719940E-003
           9 -1.525666688104204E-003
          10 -2.755205253115000E-004
          11  1.412719438869132E-003
          12  1.160801096222239E-004
          13 -2.457665738118329E-003
          14 -8.358991320206368E-004
          15  1.332559323358966E-006
          16  1.858098928945976E-003
          17 -5.263279151216561E-003
          18  1.696319004454539E-002
          19  5.288784241397676E-003
          20 -5.845879369706660E-004
          21 -1.747635365908962E-002
          22  1.558486310317835E-002
          23 -4.398149877089366E-004
          24 -6.392560529161146E-004
          25  7.017426567816001E-002
          26  6.126255085826533E-002
          27 -2.419619874200913E-002
          28 -2.013672881234038E-002
          29  0.355927694050264     
          30  0.170927193664710     
          31  4.580794967140812E-002
          32 -2.972973736477483E-002
          33  0.281738444283759     
          34 -5.935283805996811E-002
          35  2.780878244700330E-002
          36 -0.144764687112682     
          37  0.239462113014165     
          38 -0.207333503705502     
          39  2.795651067997417E-002
          40  4.862330230614972E-002
          41 -5.608391427895901E-002
          42 -5.084172365076863E-002
          43 -8.005513379598265E-003
          44  8.456716027995227E-003
          45 -7.871968054853667E-002
          46 -4.857652486486115E-002
          47  2.900178578587350E-002
          48  1.723390308862300E-002
          49  0.289602174584999     
          50  1.425677309610204E-003
          51 -4.645439383462815E-002
          52  0.151202217283484     
          53 -9.128915833425050E-004
          54 -4.011601917749826E-004
          55 -1.517382919372075E-004
          56 -2.303724654364544E-004
          57 -1.169046845229480E-004
          58 -2.831931191026279E-004
          59 -3.795687498328760E-004
          60 -1.739201658383095E-004
          61 -9.625588445166224E-004
          62  1.043183552473973E-004
          63 -7.583162853502612E-003
          64 -7.898838936389733E-003
          65  1.005981888459574E-002
          66  1.571329358902376E-002
          67  1.119224482068311E-002
          68  3.796104840496885E-002
          69  4.513749945586665E-002
          70  4.761709621425605E-002
          71  4.094795060917757E-002
Sym=     5a
Ene=  -0.828672948650026     
Spin= Alpha
Occup=     2.00000000
           1  1.185962030929908E-002
           2  1.414651805442457E-002
           3  5.431815802507269E-003
           4  5.964277010382183E-003
           5  9.618322443865188E-002
           6  5.908605002997757E-002
           7 -6.266847793514600E-003
           8 -1.435159315281571E-002
           9  2.687870781611200E-002
          10  1.033092339761144E-002
          11 -2.254863328197633E-002
          12 -3.213268545502181E-003
          13  1.768505845693678E-002
          14  1.075996923985944E-002
          15  8.399648085724663E-003
          16 -1.589836963562093E-002
          17  0.294326728880960     
          18  8.796852719961291E-002
          19  6.636081450107907E-002
          20  4.995473970066144E-002
          21 -0.332372933095046     
          22  0.100516770821862     
          23  0.281711205454066     
          24  2.976859150777445E-002
          25  0.324407237289002     
          26 -3.944128899670247E-002
          27 -7.501109653418066E-002
          28 -6.233293374781045E-002
          29  0.140127676137426     
          30 -0.157137487874822     
          31  7.637281133228667E-002
          32  2.857755421525571E-002
          33 -4.506472362231610E-002
          34 -2.364205955813432E-002
          35  8.989188215510641E-003
          36  2.582639414476320E-002
          37 -5.875807950789267E-002
          38  4.297852743788395E-002
          39 -3.271963091254261E-003
          40 -1.300452701839838E-002
          41  1.856042828884103E-002
          42  1.471269902018179E-002
          43  4.532463422013065E-003
          44 -2.544686028273888E-003
          45  2.997890890332114E-002
          46  1.484533351568054E-002
          47 -1.178483805790886E-002
          48 -6.710238474511269E-003
          49 -2.452983847707432E-002
          50 -4.122191476875939E-002
          51  1.701228718872354E-002
          52 -4.311432532125240E-003
          53 -4.063103398813948E-003
          54  3.701520133485383E-003
          55  1.312262908506740E-003
          56  6.601124232497570E-003
          57  1.761102428029185E-003
          58  7.049062705217465E-003
          59  8.260967402541709E-003
          60  1.850659713824620E-003
          61 -4.993115114255504E-003
          62  7.916822752714930E-002
          63 -0.194569885031049     
          64 -0.155319017763020     
          65  7.608189430625084E-002
          66  6.893925931692087E-002
          67 -5.127233019898808E-002
          68 -9.757088417371823E-003
          69 -4.586564473437246E-003
          70  1.641996394995518E-003
          71 -4.491021886460599E-003
Sym=     6a
Ene=  -0.810015755610133     
Spin= Alpha
Occup=     2.00000000
           1  0.102304829568971     
           2  6.749677373346605E-002
           3  7.024024289190716E-003
           4  3.369491184244294E-002
           5  0.299860284654744     
           6  6.172643159516476E-002
           7 -5.133819035039957E-002
           8 -4.161833492835020E-002
           9  7.268407213511827E-002
          10  7.495041974296240E-003
          11 -6.070530620683322E-002
          12 -7.702814162486599E-003
          13  8.992362397624848E-002
          14  2.050389129099938E-002
          15  1.126809873333932E-002
          16 -6.453501872063937E-002
          17  0.259590770708015     
          18 -0.204888672587041     
          19 -4.217742263016036E-003
          20  1.278003787167942E-003
          21 -7.828461366373196E-002
          22 -0.219214406466937     
          23  0.192575029704159     
          24 -1.507180457571018E-002
          25 -0.215422386339289     
          26 -0.118267765277004     
          27  7.924735648529738E-002
          28  1.988195224093395E-002
          29 -0.217981192033637     
          30  0.181730553225499     
          31 -6.159313424737040E-002
          32 -5.256247409469816E-002
          33  5.035634183606635E-002
          34  5.567623112323813E-002
          35 -8.185511246668780E-003
          36 -3.753175577129365E-002
          37  0.106653528215686     
          38 -6.835008738796855E-002
          39  7.546376280626322E-003
          40  1.578113713646991E-002
          41 -3.858406295142373E-002
          42 -3.312656208148321E-002
          43 -1.271934774000872E-002
          44  3.739559552762579E-003
          45 -4.818059497408298E-002
          46 -2.916512448692273E-002
          47  2.596751524528798E-002
          48  1.261773102929082E-002
          49  5.099440848864928E-002
          50  6.515242407702862E-002
          51 -1.776468539765055E-002
          52  4.985444424369294E-003
          53  2.805168961328544E-002
          54  2.308346460203077E-002
          55  1.300405326238424E-002
          56  1.611257803588335E-002
          57  9.543717885398767E-003
          58  1.258801190469591E-002
          59  1.722624226126895E-002
          60  1.290789446047774E-002
          61  2.301023701976421E-002
          62  7.976741495240131E-002
          63 -2.051616724981086E-002
          64 -2.111063173368188E-002
          65 -5.285051107782771E-002
          66 -4.351706808252703E-002
          67 -0.157875348910392     
          68  1.031101368799501E-002
          69  5.108055712050956E-003
          70  5.611742362220397E-003
          71  1.011631895302123E-002
Sym=     7a
Ene=  -0.787147933774479     
Spin= Alpha
Occup=     2.00000000
           1 -8.334044023928863E-002
           2 -3.563403925102836E-002
           3 -1.140913096058164E-002
           4 -3.973691603497422E-002
           5 -0.234677434344352     
           6  9.131580068179435E-003
           7  4.546687340342365E-003
           8 -4.074930976075567E-002
           9 -8.993905445629945E-002
          10 -1.046728317183278E-003
          11  5.800556486059767E-002
          12 -4.312444421344825E-003
          13 -0.147216112212625     
          14 -2.189084648825820E-002
          15 -1.025346213348444E-002
          16  6.353825015276844E-002
          17  0.100070921239699     
          18  8.589896010687766E-002
          19 -0.108700530438786     
          20 -0.144451259559396     
          21 -1.129271644885120E-002
          22  0.127025426101012     
          23  0.228812189541596     