35
 energy: -47.052327177063 gnorm: 0.000359870998 xtb: 6.7.1 (edcfbbe)
C           -2.91374829941183        0.04643030216853       -1.11730671805738
C           -2.25769849247860       -0.31981027398522        0.21661993814366
C           -2.88039249113019       -1.61783108658841        0.74288603610488
C           -2.49783846970712        0.80105562470194        1.23184380450528
C           -0.75240787336456       -0.56853523110702       -0.02810838269361
N            0.00054940571338       -0.78293514727028        1.24155398141953
C            0.01915436640716        0.57361727607020       -0.73701755635261
N            1.42935265475851        0.39867736976607       -0.41779811395578
C            2.24973826344808        1.61005716692191       -0.30967505038973
C            3.68546149694665        1.07890156682646       -0.19480574129691
C            3.59345263248800       -0.36618304691733       -0.70104445004441
F            4.55891068280724       -0.69779395902029       -1.57296338845859
F            3.70878661299392       -1.24595273076695        0.34244668261980
C            2.18551097149193       -0.49177363766506       -1.29087838924853
H           -2.59444212310728        1.02601914370809       -1.45961380067709
H           -2.67579294367798       -0.68772434087567       -1.88219676105167
H           -3.99295020276395        0.06933025666348       -1.00162518243041
H           -3.94752353416310       -1.47969985077933        0.88809635067423
H           -2.74724197307251       -2.42951834021477        0.03238398324473
H           -2.45746821905418       -1.91659176771042        1.69956887007200
H           -1.98682601195753        1.72041419272428        0.95866582054414
H           -3.56090779485812        1.02246063493567        1.26324662318328
H           -2.21136263693037        0.51797621337767        2.24447650459800
H           -0.65101984066170       -1.47676167681607       -0.62872632578301
H           -0.39920827197425       -0.20827903155043        1.98988637354935
H            0.04651097130273       -1.75628871785205        1.54132503135263
H           -0.17469207563754        0.55301708630852       -1.81214557738671
H           -0.29952689679037        1.54196771791743       -0.34926302105897
H            0.97080654357136       -0.38772905150814        0.92048870469203
H            1.94845453710993        2.18808714196071        0.56438074143044
H            2.14242972317635        2.23878250717307       -1.20129782353038
H            4.38575658123493        1.64013038082526       -0.80928067807617
H            4.04945370127606        1.08013340667952        0.83147301870264
H            2.20195925237867       -0.15420108069208       -2.33491455745352
H            1.82475975363788       -1.51944901740789       -1.24801967961317
