33
 energy: -39.490572524135 gnorm: 0.000622794652 xtb: 6.7.1 (edcfbbe)
C           -2.51434736381214       -0.93823124698857       -0.46296022198583
C           -1.99760611064318        0.42812222855313       -0.00545474505182
C           -2.19978990728597        0.56632202784391        1.50576969453689
C           -2.79235794818929        1.52829950401149       -0.71940364088557
C           -0.49615001732085        0.63502482098222       -0.32908205752796
N           -0.13782080412765        0.53701425460432       -1.75254142638995
C            0.45215245419417       -0.36838214870015        0.37404674500858
N            1.72448649686452       -0.29583206980234       -0.37511372811296
C            2.52945298345278       -1.53497906992231       -0.41926080464054
C            3.68186573367645       -1.26440301322565        0.58168248703358
O            3.34488205546654       -0.02817187332201        1.18203383376993
C            2.68774936446049        0.68853861773973        0.20752160853173
H           -2.38184650843172       -1.09389986973395       -1.53216441980655
H           -2.03907873121086       -1.75549526591387        0.07356148116602
H           -3.58008645184672       -0.99667956021697       -0.26136376337580
H           -1.79558356445134        1.50787737544615        1.86897794580208
H           -1.72943058723357       -0.24982425891674        2.04718111567103
H           -3.26108873744393        0.54795083201120        1.73513742491053
H           -2.72556315553831        1.43333142812880       -1.80109688848311
H           -2.43564653887872        2.51485328539630       -0.43205937127899
H           -3.84148950024100        1.46086708818342       -0.44817904157408
H           -0.22872609435882        1.64609546124480       -0.00228216573829
H           -0.28551625178512        1.40633125170729       -2.24961777345667
H           -0.67508472509102       -0.18998014997273       -2.21604510366210
H            0.05025114564218       -1.37730014612587        0.28504138449466
H            0.60434046504589       -0.13419699591393        1.42611652941076
H            1.25329089507393        0.04779500400237       -1.33712714042856
H            2.91088472271429       -1.69309307343601       -1.42825763668480
H            1.92974525972118       -2.39456850222666       -0.12693961066319
H            4.64319998390389       -1.18873171111774        0.06120451111927
H            3.75756634781748       -2.00863291983145        1.37337676592363
H            3.36148555666156        1.01968520616027       -0.59856405668230
H            2.18585953319379        1.54429348934952        0.65874800652260
