48
 energy: -58.638234646014 gnorm: 0.000658814104 xtb: 6.7.1 (edcfbbe)
N            1.10459427663083       -0.22315003970095       -1.49869388954312
C            0.47060987906061        0.43203486644696       -0.34637902856983
C            1.28015128721353       -0.05798654331397        0.88144075904313
N            2.68465314288445       -0.17443919879920        0.43338566153303
C            3.47135112437686        1.06189600245589        0.61849991517932
C            4.83881574417113        0.89173639343425       -0.05203854761702
O            5.52197439231831       -0.20936743697249        0.48536772469840
C            4.80153084704210       -1.39897420539188        0.30359145125435
C            3.43130623847873       -1.31975218401739        0.98706612946331
C           -1.06172890814662        0.23093424295352       -0.21994748563048
C           -1.56454231296195        0.93569985397535        1.04684964076989
C           -3.08740777409375        0.82278024862826        1.14150589825644
C           -3.73186613065008        1.47490982776475       -0.07894246835184
C           -3.25127287718136        0.76157557489781       -1.34019156463129
C           -1.73084260211282        0.87708248427085       -1.44366312147402
C           -3.64379879709196       -0.71298446517908       -1.28242696620718
C           -2.99532575591507       -1.35680678886182       -0.05903136689581
C           -1.47047279488338       -1.24570832793045       -0.16000195949777
C           -3.47980864663705       -0.65182113990236        1.20595198439374
H            0.98634614552596        0.31289119829425       -2.34895663803599
H            0.70227280607737       -1.14297867557252       -1.65450656353389
H            0.64529397929539        1.50870849088570       -0.45876321471743
H            0.93101542334585       -1.04424036968085        1.18773407184206
H            1.19512473875076        0.62726519007637        1.72226278155754
H            2.47383068875701       -0.31797881602819       -0.62932467403432
H            3.60838688441343        1.23390648714286        1.68918954481703
H            2.93755083999376        1.90442183331875        0.18026190952075
H            4.70745925479985        0.77235083255652       -1.13869625524729
H            5.46354159202004        1.76530467990095        0.13702562948214
H            5.39993991489384       -2.19405346010640        0.74946021052281
H            4.66775926281244       -1.60870546528372       -0.76912520369441
H            2.87303833095570       -2.24011587573883        0.81426169429777
H            3.56381401827633       -1.17037203291594        2.06168744253271
H           -1.12306058542587        0.47690348076491        1.93367060624220
H           -1.27341894193799        1.98836759635602        1.02544727864305
H           -3.42350056573721        1.33162568052143        2.04976046027238
H           -4.81751017996230        1.40697476309876       -0.00530624736584
H           -3.46573572786413        2.53298122374591       -0.12262056427028
H           -3.70340595699380        1.22780729577796       -2.22066495919187
H           -1.44771253202068        1.93096075642799       -1.50508965551753
H           -1.39917568413340        0.38311013125213       -2.36080734332471
H           -4.72799843279856       -0.80569291060818       -1.21591926721353
H           -3.32223090157353       -1.22374217154209       -2.19305431543930
H           -3.26761795704847       -2.41601181352414       -0.01520539379272
H           -1.14277707407194       -1.77861459612062       -1.05725327524089
H           -1.02573573307798       -1.73577791616430        0.70943299329296
H           -4.56319580603513       -0.74354363323640        1.28552885836687
H           -3.04021813373983       -1.11941106835748        2.08984093934402
