[Molden Format]
[Title]
[Atoms] AU
C      1     6 -0.47983083559675E+01  0.38114901709858E+01 -0.12216504365622E+01
C      2     6 -0.60401122320915E+01  0.11970652915522E+01 -0.12174117069203E+01
C      3     6 -0.83276484244582E+01  0.12426918205518E+01  0.56035796071870E+00
C      4     6 -0.69375674060532E+01  0.54843699724809E+00 -0.38901360053638E+01
C      5     6 -0.42141030999608E+01 -0.89718533964256E+00 -0.29755560888486E+00
N      6     7 -0.30632893357287E+01 -0.44058114520192E+00  0.21893841328351E+01
C      7     6 -0.19460042267485E+01 -0.13755006184670E+01 -0.21002377554169E+01
N      8     7  0.42324073419031E-01 -0.25421648181052E+01 -0.53117374522684E+00
C      9     6  0.26773575772728E+01 -0.17377923632513E+01 -0.10448644246423E+01
C     10     6  0.45368390258435E+01 -0.31679191519555E+01  0.59346813080946E+00
C     11     6  0.38540164402918E+01 -0.42078396219732E+01  0.29045016453191E+01
C     12     6  0.56716463672832E+01 -0.54389634908239E+01  0.43373108153877E+01
F     13     9  0.49598445995406E+01 -0.64355614678968E+01  0.65439422332651E+01
C     14     6  0.81552334190614E+01 -0.56636045318584E+01  0.35620915063538E+01
C     15     6  0.87831812345605E+01 -0.45965262012917E+01  0.12568902220478E+01
F     16     9  0.11153761514520E+02 -0.47670755139589E+01  0.43006237133799E+00
C     17     6  0.70200304499492E+01 -0.33622196382286E+01 -0.23351278843783E+00
C     18     6  0.29224599303344E+01  0.10785530151865E+01 -0.58927556880328E+00
C     19     6  0.26150436308350E+01  0.20431064085428E+01  0.18340807077219E+01
C     20     6  0.28084164564363E+01  0.46254522998285E+01  0.22119017187984E+01
F     21     9  0.24552685970036E+01  0.55217499858123E+01  0.45448975947528E+01
C     22     6  0.33134882157346E+01  0.62923881486174E+01  0.26095222437688E+00
C     23     6  0.36370816428008E+01  0.52750635870854E+01 -0.21259414961460E+01
F     24     9  0.41215210872176E+01  0.68082948612635E+01 -0.40631932874800E+01
C     25     6  0.34367836465125E+01  0.27012132384653E+01 -0.25838902734593E+01
H     26     1 -0.42985159496850E+01  0.44383645565939E+01  0.67287849200612E+00
H     27     1 -0.61346442496545E+01  0.51770838389984E+01 -0.19713454914441E+01
H     28     1 -0.31191605082704E+01  0.38797580274406E+01 -0.24046470478965E+01
H     29     1 -0.96784417082814E+01  0.26500724968442E+01 -0.75318268016314E-01
H     30     1 -0.77846324121111E+01  0.17253121992230E+01  0.24834906796891E+01
H     31     1 -0.92762755648484E+01 -0.58037869092169E+00  0.58085077865675E+00
H     32     1 -0.54203101493764E+01  0.73108639952174E+00 -0.52609415868592E+01
H     33     1 -0.76814407218429E+01 -0.13648769528972E+01 -0.39712580279642E+01
H     34     1 -0.84406220502912E+01  0.18312108742551E+01 -0.44437358130795E+01
H     35     1 -0.52986303435332E+01 -0.26551765573571E+01 -0.15772534797475E+00
H     36     1 -0.27136548776399E+01  0.14287808912476E+01  0.24561170283919E+01
H     37     1 -0.41572328108687E+01 -0.10649873630025E+01  0.36298255368324E+01
H     38     1 -0.24829000049357E+01 -0.25694655569211E+01 -0.36849574978757E+01
H     39     1 -0.12278334228304E+01  0.41689798158679E+00 -0.28156988369752E+01
H     40     1 -0.75202155620727E+00 -0.17946227372445E+01  0.13341958852516E+01
H     41     1 -0.54502975505545E-01 -0.44681786337812E+01 -0.56185725285289E+00
H     42     1  0.31038082682524E+01 -0.21334784867380E+01 -0.30327735498967E+01
H     43     1  0.19625936043612E+01 -0.41100047464928E+01  0.36590951850720E+01
H     44     1  0.95415067659757E+01 -0.66253786125027E+01  0.47015805677653E+01
H     45     1  0.76087785303295E+01 -0.25650347045624E+01 -0.20134489393233E+01
H     46     1  0.22886689543468E+01  0.83122294736018E+00  0.34388917652463E+01
H     47     1  0.34694572376773E+01  0.82958458527392E+01  0.58969163345292E+00
H     48     1  0.37087411172703E+01  0.20133750542027E+01 -0.44839080585773E+01
[GTO]
           1 0
 s           4   1.00000000000000     
   51.0493630955799      -0.163120632101274     
   8.79112274068875      -0.199110245810007     
  0.706404222589298       0.318820477536558     
  0.269228134134116       0.127065041842404     
 p           4   1.00000000000000     
   5.82636561408000       0.737164515452096     
   1.51068960187200       0.682163716148503     
  0.532564832880000       0.357830539292537     
  0.212023236906000       5.398303027584788E-002
 
           2 0
 s           4   1.00000000000000     
   51.0493630955799      -0.163120632101274     
   8.79112274068875      -0.199110245810007     
  0.706404222589298       0.318820477536558     
  0.269228134134116       0.127065041842404     
 p           4   1.00000000000000     
   5.82636561408000       0.737164515452096     
   1.51068960187200       0.682163716148503     
  0.532564832880000       0.357830539292537     
  0.212023236906000       5.398303027584788E-002
 
           3 0
 s           4   1.00000000000000     
   51.0493630955799      -0.163120632101274     
   8.79112274068875      -0.199110245810007     
  0.706404222589298       0.318820477536558     
  0.269228134134116       0.127065041842404     
 p           4   1.00000000000000     
   5.82636561408000       0.737164515452096     
   1.51068960187200       0.682163716148503     
  0.532564832880000       0.357830539292537     
  0.212023236906000       5.398303027584788E-002
 
           4 0
 s           4   1.00000000000000     
   51.0493630955799      -0.163120632101274     
   8.79112274068875      -0.199110245810007     
  0.706404222589298       0.318820477536558     
  0.269228134134116       0.127065041842404     
 p           4   1.00000000000000     
   5.82636561408000       0.737164515452096     
   1.51068960187200       0.682163716148503     
  0.532564832880000       0.357830539292537     
  0.212023236906000       5.398303027584788E-002
 
           5 0
 s           4   1.00000000000000     
   51.0493630955799      -0.163120632101274     
   8.79112274068875      -0.199110245810007     
  0.706404222589298       0.318820477536558     
  0.269228134134116       0.127065041842404     
 p           4   1.00000000000000     
   5.82636561408000       0.737164515452096     
   1.51068960187200       0.682163716148503     
  0.532564832880000       0.357830539292537     
  0.212023236906000       5.398303027584788E-002
 
           6 0
 s           4   1.00000000000000     
   63.5940244669410      -0.192343884147216     
   10.9514172315237      -0.234781079249537     
  0.879993102573770       0.375937539017009     
  0.335387152965211       0.149828892718628     
 p           4   1.00000000000000     
   7.29650404814951       0.976586663156674     
   1.89187454507126       0.903722267303458     
  0.666944321108241       0.474049584615364     
  0.265522026741309       7.151606771501186E-002
 
           7 0
 s           4   1.00000000000000     
   51.0493630955799      -0.163120632101274     
   8.79112274068875      -0.199110245810007     
  0.706404222589298       0.318820477536558     
  0.269228134134116       0.127065041842404     
 p           4   1.00000000000000     
   5.82636561408000       0.737164515452096     
   1.51068960187200       0.682163716148503     
  0.532564832880000       0.357830539292537     
  0.212023236906000       5.398303027584788E-002
 
           8 0
 s           4   1.00000000000000     
   63.5940244669410      -0.192343884147216     
   10.9514172315237      -0.234781079249537     
  0.879993102573770       0.375937539017009     
  0.335387152965211       0.149828892718628     
 p           4   1.00000000000000     
   7.29650404814951       0.976586663156674     
   1.89187454507126       0.903722267303458     
  0.666944321108241       0.474049584615364     
  0.265522026741309       7.151606771501186E-002
 
           9 0
 s           4   1.00000000000000     
   51.0493630955799      -0.163120632101274     
   8.79112274068875      -0.199110245810007     
  0.706404222589298       0.318820477536558     
  0.269228134134116       0.127065041842404     
 p           4   1.00000000000000     
   5.82636561408000       0.737164515452096     
   1.51068960187200       0.682163716148503     
  0.532564832880000       0.357830539292537     
  0.212023236906000       5.398303027584788E-002
 
          10 0
 s           4   1.00000000000000     
   51.0493630955799      -0.163120632101274     
   8.79112274068875      -0.199110245810007     
  0.706404222589298       0.318820477536558     
  0.269228134134116       0.127065041842404     
 p           4   1.00000000000000     
   5.82636561408000       0.737164515452096     
   1.51068960187200       0.682163716148503     
  0.532564832880000       0.357830539292537     
  0.212023236906000       5.398303027584788E-002
 
          11 0
 s           4   1.00000000000000     
   51.0493630955799      -0.163120632101274     
   8.79112274068875      -0.199110245810007     
  0.706404222589298       0.318820477536558     
  0.269228134134116       0.127065041842404     
 p           4   1.00000000000000     
   5.82636561408000       0.737164515452096     
   1.51068960187200       0.682163716148503     
  0.532564832880000       0.357830539292537     
  0.212023236906000       5.398303027584788E-002
 
          12 0
 s           4   1.00000000000000     
   51.0493630955799      -0.163120632101274     
   8.79112274068875      -0.199110245810007     
  0.706404222589298       0.318820477536558     
  0.269228134134116       0.127065041842404     
 p           4   1.00000000000000     
   5.82636561408000       0.737164515452096     
   1.51068960187200       0.682163716148503     
  0.532564832880000       0.357830539292537     
  0.212023236906000       5.398303027584788E-002
 
          13 0
 s           4   1.00000000000000     
   67.8191594740697      -0.201850789245403     
   11.6790204412661      -0.246385510808000     
  0.938459125048083       0.394518855091218     
  0.357670001280168       0.157234426148285     
 p           4   1.00000000000000     
   9.58240403549692        1.37296780219284     
   2.48457427772447        1.27052889614703     
  0.875889317934415       0.666458841672068     
  0.348706630431394       0.100543312761176     
 
          14 0
 s           4   1.00000000000000     
   51.0493630955799      -0.163120632101274     
   8.79112274068875      -0.199110245810007     
  0.706404222589298       0.318820477536558     
  0.269228134134116       0.127065041842404     
 p           4   1.00000000000000     
   5.82636561408000       0.737164515452096     
   1.51068960187200       0.682163716148503     
  0.532564832880000       0.357830539292537     
  0.212023236906000       5.398303027584788E-002
 
          15 0
 s           4   1.00000000000000     
   51.0493630955799      -0.163120632101274     
   8.79112274068875      -0.199110245810007     
  0.706404222589298       0.318820477536558     
  0.269228134134116       0.127065041842404     
 p           4   1.00000000000000     
   5.82636561408000       0.737164515452096     
   1.51068960187200       0.682163716148503     
  0.532564832880000       0.357830539292537     
  0.212023236906000       5.398303027584788E-002
 
          16 0
 s           4   1.00000000000000     
   67.8191594740697      -0.201850789245403     
   11.6790204412661      -0.246385510808000     
  0.938459125048083       0.394518855091218     
  0.357670001280168       0.157234426148285     
 p           4   1.00000000000000     
   9.58240403549692        1.37296780219284     
   2.48457427772447        1.27052889614703     
  0.875889317934415       0.666458841672068     
  0.348706630431394       0.100543312761176     
 
          17 0
 s           4   1.00000000000000     
   51.0493630955799      -0.163120632101274     
   8.79112274068875      -0.199110245810007     
  0.706404222589298       0.318820477536558     
  0.269228134134116       0.127065041842404     
 p           4   1.00000000000000     
   5.82636561408000       0.737164515452096     
   1.51068960187200       0.682163716148503     
  0.532564832880000       0.357830539292537     
  0.212023236906000       5.398303027584788E-002
 
          18 0
 s           4   1.00000000000000     
   51.0493630955799      -0.163120632101274     
   8.79112274068875      -0.199110245810007     
  0.706404222589298       0.318820477536558     
  0.269228134134116       0.127065041842404     
 p           4   1.00000000000000     
   5.82636561408000       0.737164515452096     
   1.51068960187200       0.682163716148503     
  0.532564832880000       0.357830539292537     
  0.212023236906000       5.398303027584788E-002
 
          19 0
 s           4   1.00000000000000     
   51.0493630955799      -0.163120632101274     
   8.79112274068875      -0.199110245810007     
  0.706404222589298       0.318820477536558     
  0.269228134134116       0.127065041842404     
 p           4   1.00000000000000     
   5.82636561408000       0.737164515452096     
   1.51068960187200       0.682163716148503     
  0.532564832880000       0.357830539292537     
  0.212023236906000       5.398303027584788E-002
 
          20 0
 s           4   1.00000000000000     
   51.0493630955799      -0.163120632101274     
   8.79112274068875      -0.199110245810007     
  0.706404222589298       0.318820477536558     
  0.269228134134116       0.127065041842404     
 p           4   1.00000000000000     
   5.82636561408000       0.737164515452096     
   1.51068960187200       0.682163716148503     
  0.532564832880000       0.357830539292537     
  0.212023236906000       5.398303027584788E-002
 
          21 0
 s           4   1.00000000000000     
   67.8191594740697      -0.201850789245403     
   11.6790204412661      -0.246385510808000     
  0.938459125048083       0.394518855091218     
  0.357670001280168       0.157234426148285     
 p           4   1.00000000000000     
   9.58240403549692        1.37296780219284     
   2.48457427772447        1.27052889614703     
  0.875889317934415       0.666458841672068     
  0.348706630431394       0.100543312761176     
 
          22 0
 s           4   1.00000000000000     
   51.0493630955799      -0.163120632101274     
   8.79112274068875      -0.199110245810007     
  0.706404222589298       0.318820477536558     
  0.269228134134116       0.127065041842404     
 p           4   1.00000000000000     
   5.82636561408000       0.737164515452096     
   1.51068960187200       0.682163716148503     
  0.532564832880000       0.357830539292537     
  0.212023236906000       5.398303027584788E-002
 
          23 0
 s           4   1.00000000000000     
   51.0493630955799      -0.163120632101274     
   8.79112274068875      -0.199110245810007     
  0.706404222589298       0.318820477536558     
  0.269228134134116       0.127065041842404     
 p           4   1.00000000000000     
   5.82636561408000       0.737164515452096     
   1.51068960187200       0.682163716148503     
  0.532564832880000       0.357830539292537     
  0.212023236906000       5.398303027584788E-002
 
          24 0
 s           4   1.00000000000000     
   67.8191594740697      -0.201850789245403     
   11.6790204412661      -0.246385510808000     
  0.938459125048083       0.394518855091218     
  0.357670001280168       0.157234426148285     
 p           4   1.00000000000000     
   9.58240403549692        1.37296780219284     
   2.48457427772447        1.27052889614703     
  0.875889317934415       0.666458841672068     
  0.348706630431394       0.100543312761176     
 
          25 0
 s           4   1.00000000000000     
   51.0493630955799      -0.163120632101274     
   8.79112274068875      -0.199110245810007     
  0.706404222589298       0.318820477536558     
  0.269228134134116       0.127065041842404     
 p           4   1.00000000000000     
   5.82636561408000       0.737164515452096     
   1.51068960187200       0.682163716148503     
  0.532564832880000       0.357830539292537     
  0.212023236906000       5.398303027584788E-002
 
          26 0
 s           3   1.00000000000000     
   3.37022769753360       0.273591105889083     
  0.613891182214980       0.264605406538605     
  0.166142911484160       8.246594753408230E-002
 
          27 0
 s           3   1.00000000000000     
   3.37022769753360       0.273591105889083     
  0.613891182214980       0.264605406538605     
  0.166142911484160       8.246594753408230E-002
 
          28 0
 s           3   1.00000000000000     
   3.37022769753360       0.273591105889083     
  0.613891182214980       0.264605406538605     
  0.166142911484160       8.246594753408230E-002
 
          29 0
 s           3   1.00000000000000     
   3.37022769753360       0.273591105889083     
  0.613891182214980       0.264605406538605     
  0.166142911484160       8.246594753408230E-002
 
          30 0
 s           3   1.00000000000000     
   3.37022769753360       0.273591105889083     
  0.613891182214980       0.264605406538605     
  0.166142911484160       8.246594753408230E-002
 
          31 0
 s           3   1.00000000000000     
   3.37022769753360       0.273591105889083     
  0.613891182214980       0.264605406538605     
  0.166142911484160       8.246594753408230E-002
 
          32 0
 s           3   1.00000000000000     
   3.37022769753360       0.273591105889083     
  0.613891182214980       0.264605406538605     
  0.166142911484160       8.246594753408230E-002
 
          33 0
 s           3   1.00000000000000     
   3.37022769753360       0.273591105889083     
  0.613891182214980       0.264605406538605     
  0.166142911484160       8.246594753408230E-002
 
          34 0
 s           3   1.00000000000000     
   3.37022769753360       0.273591105889083     
  0.613891182214980       0.264605406538605     
  0.166142911484160       8.246594753408230E-002
 
          35 0
 s           3   1.00000000000000     
   3.37022769753360       0.273591105889083     
  0.613891182214980       0.264605406538605     
  0.166142911484160       8.246594753408230E-002
 
          36 0
 s           3   1.00000000000000     
   3.37022769753360       0.273591105889083     
  0.613891182214980       0.264605406538605     
  0.166142911484160       8.246594753408230E-002
 
          37 0
 s           3   1.00000000000000     
   3.37022769753360       0.273591105889083     
  0.613891182214980       0.264605406538605     
  0.166142911484160       8.246594753408230E-002
 
          38 0
 s           3   1.00000000000000     
   3.37022769753360       0.273591105889083     
  0.613891182214980       0.264605406538605     
  0.166142911484160       8.246594753408230E-002
 
          39 0
 s           3   1.00000000000000     
   3.37022769753360       0.273591105889083     
  0.613891182214980       0.264605406538605     
  0.166142911484160       8.246594753408230E-002
 
          40 0
 s           3   1.00000000000000     
   3.37022769753360       0.273591105889083     
  0.613891182214980       0.264605406538605     
  0.166142911484160       8.246594753408230E-002
 
          41 0
 s           3   1.00000000000000     
   3.37022769753360       0.273591105889083     
  0.613891182214980       0.264605406538605     
  0.166142911484160       8.246594753408230E-002
 
          42 0
 s           3   1.00000000000000     
   3.37022769753360       0.273591105889083     
  0.613891182214980       0.264605406538605     
  0.166142911484160       8.246594753408230E-002
 
          43 0
 s           3   1.00000000000000     
   3.37022769753360       0.273591105889083     
  0.613891182214980       0.264605406538605     
  0.166142911484160       8.246594753408230E-002
 
          44 0
 s           3   1.00000000000000     
   3.37022769753360       0.273591105889083     
  0.613891182214980       0.264605406538605     
  0.166142911484160       8.246594753408230E-002
 
          45 0
 s           3   1.00000000000000     
   3.37022769753360       0.273591105889083     
  0.613891182214980       0.264605406538605     
  0.166142911484160       8.246594753408230E-002
 
          46 0
 s           3   1.00000000000000     
   3.37022769753360       0.273591105889083     
  0.613891182214980       0.264605406538605     
  0.166142911484160       8.246594753408230E-002
 
          47 0
 s           3   1.00000000000000     
   3.37022769753360       0.273591105889083     
  0.613891182214980       0.264605406538605     
  0.166142911484160       8.246594753408230E-002
 
          48 0
 s           3   1.00000000000000     
   3.37022769753360       0.273591105889083     
  0.613891182214980       0.264605406538605     
  0.166142911484160       8.246594753408230E-002
 
[MO]
Sym=     1a
Ene=  -0.943596135522495     
Spin= Alpha
Occup=     2.00000000
           1  1.988405767136206E-006
           2 -1.205101979285702E-006
           3  7.455454762455677E-008
           4 -2.214800545737847E-007
           5  2.792494732456853E-007
           6  3.472508270913595E-007
           7  2.496530123250825E-007
           8  7.710110714891769E-009
           9  3.520332865286441E-008
          10  2.384790261738377E-008
          11  1.062537244642632E-007
          12 -3.938421373566002E-008
          13 -5.941991257624743E-008
          14  1.567600466008286E-008
          15  1.258977390550348E-008
          16  3.838108091469379E-008
          17  2.531312672944259E-006
          18  4.513016448632564E-006
          19  1.574984970331506E-006
          20  4.036308405156331E-007
          21  5.185730553124791E-006
          22  5.198174009973302E-006
          23 -6.433779837889248E-006
          24 -1.035879623361882E-005
          25  2.731795562337197E-005
          26  3.540376782679633E-005
          27  1.422339059749732E-005
          28  1.349728762181876E-005
          29  1.589591846167874E-004
          30  1.821615022364388E-004
          31  1.672638890214421E-004
          32  9.333281097519129E-006
          33  5.577800052484911E-004
          34 -5.279121771250525E-005
          35  1.735184860689462E-004
          36  4.449616343856970E-005
          37  1.038187732061801E-004
          38 -4.480927585979499E-005
          39  3.712328070635525E-005
          40 -2.620410013134778E-005
          41  2.084269710031950E-005
          42 -4.009382874461163E-006
          43  5.311161768265570E-006
          44 -1.003303897912984E-005
          45 -3.012295215263041E-007
          46 -6.758713606534847E-007
          47  2.007726091863649E-006
          48 -3.319884199906895E-006
          49 -9.762262484507261E-006
          50  5.231993537816741E-008
          51  1.467977759332505E-007
          52 -3.027856301975118E-007
          53 -5.720398745243948E-008
          54 -3.226769409107683E-007
          55  2.398692447504689E-007
          56 -2.628754660444412E-007
          57 -6.105712998733777E-007
          58 -2.705316161949127E-006
          59  7.832809804350684E-007
          60 -4.117964786071964E-008
          61 -7.147472881424832E-006
          62 -2.092221565312758E-007
          63  5.353035959074763E-008
          64  1.603818624932470E-008
          65  1.121256013853954E-005
          66 -9.031847310022616E-006
          67  2.807066601411797E-006
          68 -2.739398634885133E-007
          69  1.532086601236377E-003
          70 -4.414816979429779E-005
          71 -8.365393407724738E-004
          72 -1.157450340658103E-003
          73 -1.375646014660549E-002
          74  8.065082481758958E-004
          75 -2.038549944238451E-002
          76 -1.275738926095584E-002
          77 -0.172084750304667     
          78  3.099296570906356E-002
          79 -6.458621920739929E-002
          80 -0.176661948881231     
          81 -0.860558192415474     
          82  1.211054592276559E-002
          83  1.447030015611421E-003
          84 -1.408333301871333E-002
          85 -1.140864967097287E-002
          86  5.061906501859397E-003
          87  6.578166095643511E-003
          88 -2.284882095801027E-002
          89  1.578131523232567E-002
          90  3.022423119146414E-003
          91  9.217472922571451E-003
          92 -1.389424517230392E-002
          93  7.310812957612862E-002
          94 -1.923101231010555E-004
          95  3.216162879296543E-004
          96 -1.118179492403171E-003
          97  1.995762468303379E-003
          98  2.081070807836218E-004
          99  1.711816448707399E-003
         100 -7.070790031936545E-004
         101 -2.330342721553673E-005
         102  1.086530854225864E-006
         103  2.859423611176518E-006
         104  8.899167046734842E-008
         105 -1.289142126407413E-007
         106  1.009545182727803E-008
         107  8.543449951226830E-008
         108  6.613397295742003E-008
         109 -9.043071632440495E-009
         110 -4.200112839862089E-007
         111  6.704155324719610E-005
         112 -3.294878422354101E-006
         113 -4.062239605689498E-007
         114 -3.018431599281291E-006
         115 -4.429036565842706E-005
         116 -5.681047405651387E-006
         117 -3.570141445605228E-005
         118 -1.166891148290646E-005
         119  1.213066677189781E-007
         120 -6.982214513770843E-006
         121  1.043791506529353E-004
         122  4.401219003849481E-004
         123 -2.627873990257190E-004
Sym=     2a
Ene=  -0.940104120541704     
Spin= Alpha
Occup=     2.00000000
           1  1.555207789199812E-006
           2  4.639568541899087E-007
           3 -5.770623783943764E-007
           4  3.441213841081379E-007
           5  1.421658168761518E-007
           6  5.063575768022333E-007
           7  1.309989666333248E-007
           8 -6.365651114845226E-008
           9 -2.639217429529321E-008
          10  8.885918537465759E-009
          11  2.212581520124340E-008
          12 -1.620967778446134E-008
          13 -6.371998892392950E-008
          14  9.117136920268591E-008
          15  2.352196322599875E-008
          16  5.915760668237646E-008
          17  2.682931252243425E-008
          18  3.725806202480969E-006
          19  2.496493855809727E-006
          20 -1.046417712540589E-006
          21  1.815240877505218E-006
          22  5.960055347603404E-006
          23  2.019273571771541E-006
          24 -3.400659849414638E-006
          25  4.057581867062048E-005
          26  4.835257838577059E-005
          27  1.641771980890561E-005
          28  1.034406085995033E-005
          29  1.738057354522471E-004
          30  1.966633674868085E-004
          31  1.705604115735133E-004
          32 -3.936761068213309E-005
          33  7.277048204066217E-004
          34 -4.325044811753513E-005
          35  2.774610640704236E-004
          36  3.284658985306350E-005
          37  9.881471907638158E-005
          38 -5.286202582749218E-005
          39  5.759534297759476E-005
          40 -3.498076628419355E-005
          41  1.157880585714377E-005
          42 -2.714628184083240E-006
          43  9.134351989899466E-006
          44 -1.138387358346282E-005
          45 -6.171246106433556E-006
          46  1.446962468894707E-006
          47  3.629806114742864E-006
          48 -7.205753848592495E-006
          49 -3.274999235426059E-005
          50  4.812643987112991E-007
          51  1.788395691878503E-007
          52 -4.940138673809227E-007
          53 -6.970979240651705E-007
          54  1.819793809966954E-007
          55  2.395086694775882E-007
          56 -5.006988842459753E-007
          57 -2.049183032414560E-006
          58 -3.922717534173242E-006
          59  1.032064978569118E-006
          60  1.598709959571441E-007
          61 -1.318781237573560E-005
          62 -3.421317691499321E-007
          63  8.207871062533924E-008
          64  4.172226138423829E-008
          65  1.297532764303771E-005
          66 -1.213850225312221E-005
          67  5.583102508547661E-006
          68 -9.687509111466829E-007
          69  2.104675148213913E-003
          70 -4.177978424620664E-004
          71 -1.203249831837545E-003
          72  6.032384805900310E-004
          73 -1.921557103736390E-004
          74 -4.053347345537255E-005
          75 -2.070809951027650E-003
          76 -1.123047620860226E-003
          77 -1.417073196840787E-002
          78  2.452964590683774E-003
          79 -6.717371386209736E-003
          80 -1.507401258032934E-002
          81 -7.741068849214891E-002
          82  1.092263544414906E-003
          83  6.296062339258223E-005
          84 -1.372962734466231E-003
          85 -1.372814427916257E-002
          86 -3.313269171124688E-003
          87  4.755913866165792E-004
          88  2.058686424154119E-002
          89 -0.173281602036396     
          90 -3.457184069330781E-002
          91 -0.115168444168780     
          92  0.149253732091910     
          93 -0.859265965414608     
          94  2.033351847459926E-003
          95 -4.606411232750111E-003
          96  1.350058440769657E-002
          97 -1.318366366433135E-002
          98 -3.178552009329544E-003
          99 -2.312729356298631E-002
         100  5.835054286604160E-003
         101 -2.758683837758320E-006
         102  5.290330549720578E-007
         103 -1.972913498683739E-006
         104  1.748070097955265E-008
         105 -3.953602393924310E-010
         106  3.808780238468934E-008
         107  4.580237629167827E-007
         108  9.312512326135706E-008
         109  1.049413325999611E-008
         110 -3.573723267353479E-007
         111  8.595917267811628E-006
         112 -8.927426542459002E-007
         113  8.382620029871407E-007
         114 -3.193554729268638E-005
         115 -1.459881358108319E-006
         116 -4.051937071147118E-006
         117 -1.220887994880966E-004
         118 -5.348789346976186E-007
         119  1.849890945212834E-007
         120 -1.347781577046982E-005
         121 -2.235396765662883E-004
         122  5.456747253339434E-004