[Molden Format]
[Title]
[Atoms] AU
C      1     6 -0.59095639887181E+01 -0.17691889463491E+01 -0.21012651634087E+01
C      2     6 -0.44421519354692E+01 -0.25961651147548E+00 -0.10963118033294E+00
C      3     6 -0.52832945863041E+01 -0.11111394471744E+01  0.25246255704158E+01
C      4     6 -0.50299492774980E+01  0.25532955143522E+01 -0.44144822980871E+00
C      5     6 -0.15913733101037E+01 -0.85880043439821E+00 -0.43879565951078E+00
N      6     7 -0.47554648373930E+00 -0.10918907181433E+00 -0.28650408170899E+01
C      7     6  0.12217281428566E+00  0.37693922136080E+00  0.15910225842927E+01
N      8     7  0.27294642752351E+01  0.29340344871588E+00  0.58238404774196E+00
C      9     6  0.40782725456484E+01 -0.20501635859151E+01  0.12897678523669E+01
C     10     6  0.64297641232237E+01 -0.24343645672606E+01 -0.31096042955194E+00
S     11    16  0.87420473014039E+01  0.40928406064673E-01  0.31600258549286E+00
C     12     6  0.66281460949495E+01  0.26334207095374E+01 -0.50536106822209E+00
C     13     6  0.42527754763009E+01  0.25728010298677E+01  0.11075301285256E+01
H     14     1 -0.79251719221923E+01 -0.14756612990320E+01 -0.18547796932762E+01
H     15     1 -0.54240336887195E+01 -0.11765046332171E+01 -0.40091190473715E+01
H     16     1 -0.55359194003238E+01 -0.37823099158505E+01 -0.19198258474517E+01
H     17     1 -0.73257732359743E+01 -0.97737694385202E+00  0.26720438785911E+01
H     18     1 -0.44717277843497E+01  0.70815423555935E-01  0.39945413333921E+01
H     19     1 -0.47528821240830E+01 -0.30654680330454E+01  0.28727339839079E+01
H     20     1 -0.41060398312274E+01  0.37115994288107E+01  0.98203351438352E+00
H     21     1 -0.70528203966949E+01  0.28378477058322E+01 -0.24201760586794E+00
H     22     1 -0.45035468906356E+01  0.32419227781814E+01 -0.23068411405561E+01
H     23     1 -0.13841378284654E+01 -0.29145605504497E+01 -0.29431406889895E+00
H     24     1 -0.85363689511520E+00 -0.13783827924501E+01 -0.42451748219447E+01
H     25     1 -0.11577797710792E+01  0.15930548212243E+01 -0.34321970620391E+01
H     26     1 -0.42082807541070E+00  0.23452629323564E+01  0.18571507683532E+01
H     27     1 -0.35197383525954E-02 -0.59897321875279E+00  0.33963915759682E+01
H     28     1  0.22250157939693E+01  0.20823130339724E+00 -0.14147110064983E+01
H     29     1  0.27941912730573E+01 -0.36433711225507E+01  0.10253258767236E+01
H     30     1  0.46036463819530E+01 -0.19373837002456E+01  0.32849232096926E+01
H     31     1  0.59829873542192E+01 -0.24441343301178E+01 -0.23236233855642E+01
H     32     1  0.73395054080843E+01 -0.42105590525032E+01  0.18229435786578E+00
H     33     1  0.76775579662493E+01  0.43654130627619E+01 -0.15147074839012E+00
H     34     1  0.61779703260192E+01  0.25199271090270E+01 -0.25144575631091E+01
H     35     1  0.31041929430833E+01  0.42377305768135E+01  0.69246734560084E+00
H     36     1  0.47619870867730E+01  0.25945546845939E+01  0.31097959255772E+01
[GTO]
           1 0
 s           4   1.00000000000000     
   51.0493630955799      -0.163120632101274     
   8.79112274068875      -0.199110245810007     
  0.706404222589298       0.318820477536558     
  0.269228134134116       0.127065041842404     
 p           4   1.00000000000000     
   5.82636561408000       0.737164515452096     
   1.51068960187200       0.682163716148503     
  0.532564832880000       0.357830539292537     
  0.212023236906000       5.398303027584788E-002
 
           2 0
 s           4   1.00000000000000     
   51.0493630955799      -0.163120632101274     
   8.79112274068875      -0.199110245810007     
  0.706404222589298       0.318820477536558     
  0.269228134134116       0.127065041842404     
 p           4   1.00000000000000     
   5.82636561408000       0.737164515452096     
   1.51068960187200       0.682163716148503     
  0.532564832880000       0.357830539292537     
  0.212023236906000       5.398303027584788E-002
 
           3 0
 s           4   1.00000000000000     
   51.0493630955799      -0.163120632101274     
   8.79112274068875      -0.199110245810007     
  0.706404222589298       0.318820477536558     
  0.269228134134116       0.127065041842404     
 p           4   1.00000000000000     
   5.82636561408000       0.737164515452096     
   1.51068960187200       0.682163716148503     
  0.532564832880000       0.357830539292537     
  0.212023236906000       5.398303027584788E-002
 
           4 0
 s           4   1.00000000000000     
   51.0493630955799      -0.163120632101274     
   8.79112274068875      -0.199110245810007     
  0.706404222589298       0.318820477536558     
  0.269228134134116       0.127065041842404     
 p           4   1.00000000000000     
   5.82636561408000       0.737164515452096     
   1.51068960187200       0.682163716148503     
  0.532564832880000       0.357830539292537     
  0.212023236906000       5.398303027584788E-002
 
           5 0
 s           4   1.00000000000000     
   51.0493630955799      -0.163120632101274     
   8.79112274068875      -0.199110245810007     
  0.706404222589298       0.318820477536558     
  0.269228134134116       0.127065041842404     
 p           4   1.00000000000000     
   5.82636561408000       0.737164515452096     
   1.51068960187200       0.682163716148503     
  0.532564832880000       0.357830539292537     
  0.212023236906000       5.398303027584788E-002
 
           6 0
 s           4   1.00000000000000     
   63.5940244669410      -0.192343884147216     
   10.9514172315237      -0.234781079249537     
  0.879993102573770       0.375937539017009     
  0.335387152965211       0.149828892718628     
 p           4   1.00000000000000     
   7.29650404814951       0.976586663156674     
   1.89187454507126       0.903722267303458     
  0.666944321108241       0.474049584615364     
  0.265522026741309       7.151606771501186E-002
 
           7 0
 s           4   1.00000000000000     
   51.0493630955799      -0.163120632101274     
   8.79112274068875      -0.199110245810007     
  0.706404222589298       0.318820477536558     
  0.269228134134116       0.127065041842404     
 p           4   1.00000000000000     
   5.82636561408000       0.737164515452096     
   1.51068960187200       0.682163716148503     
  0.532564832880000       0.357830539292537     
  0.212023236906000       5.398303027584788E-002
 
           8 0
 s           4   1.00000000000000     
   63.5940244669410      -0.192343884147216     
   10.9514172315237      -0.234781079249537     
  0.879993102573770       0.375937539017009     
  0.335387152965211       0.149828892718628     
 p           4   1.00000000000000     
   7.29650404814951       0.976586663156674     
   1.89187454507126       0.903722267303458     
  0.666944321108241       0.474049584615364     
  0.265522026741309       7.151606771501186E-002
 
           9 0
 s           4   1.00000000000000     
   51.0493630955799      -0.163120632101274     
   8.79112274068875      -0.199110245810007     
  0.706404222589298       0.318820477536558     
  0.269228134134116       0.127065041842404     
 p           4   1.00000000000000     
   5.82636561408000       0.737164515452096     
   1.51068960187200       0.682163716148503     
  0.532564832880000       0.357830539292537     
  0.212023236906000       5.398303027584788E-002
 
          10 0
 s           4   1.00000000000000     
   51.0493630955799      -0.163120632101274     
   8.79112274068875      -0.199110245810007     
  0.706404222589298       0.318820477536558     
  0.269228134134116       0.127065041842404     
 p           4   1.00000000000000     
   5.82636561408000       0.737164515452096     
   1.51068960187200       0.682163716148503     
  0.532564832880000       0.357830539292537     
  0.212023236906000       5.398303027584788E-002
 
          11 0
 s           4   1.00000000000000     
   5.94059715667128      -8.937241731159805E-002
   1.67332031646937      -0.180826416098390     
  0.300052353376111       0.217239963388792     
  0.147626982610695       6.093036238655329E-002
 p           4   1.00000000000000     
   7.60402394306428      -0.258148203245547     
  0.785799530644415       0.290555694475872     
  0.355154539932778       0.228494836712103     
  0.171689541475341       3.379048730081900E-002
 d           3   1.00000000000000     
   1.51575937639239       0.574808919567051     
  0.475268595433768       0.261853961962925     
  0.185128831077629       3.488754942672512E-002
 
          12 0
 s           4   1.00000000000000     
   51.0493630955799      -0.163120632101274     
   8.79112274068875      -0.199110245810007     
  0.706404222589298       0.318820477536558     
  0.269228134134116       0.127065041842404     
 p           4   1.00000000000000     
   5.82636561408000       0.737164515452096     
   1.51068960187200       0.682163716148503     
  0.532564832880000       0.357830539292537     
  0.212023236906000       5.398303027584788E-002
 
          13 0
 s           4   1.00000000000000     
   51.0493630955799      -0.163120632101274     
   8.79112274068875      -0.199110245810007     
  0.706404222589298       0.318820477536558     
  0.269228134134116       0.127065041842404     
 p           4   1.00000000000000     
   5.82636561408000       0.737164515452096     
   1.51068960187200       0.682163716148503     
  0.532564832880000       0.357830539292537     
  0.212023236906000       5.398303027584788E-002
 
          14 0
 s           3   1.00000000000000     
   3.37022769753360       0.273591105889083     
  0.613891182214980       0.264605406538605     
  0.166142911484160       8.246594753408230E-002
 
          15 0
 s           3   1.00000000000000     
   3.37022769753360       0.273591105889083     
  0.613891182214980       0.264605406538605     
  0.166142911484160       8.246594753408230E-002
 
          16 0
 s           3   1.00000000000000     
   3.37022769753360       0.273591105889083     
  0.613891182214980       0.264605406538605     
  0.166142911484160       8.246594753408230E-002
 
          17 0
 s           3   1.00000000000000     
   3.37022769753360       0.273591105889083     
  0.613891182214980       0.264605406538605     
  0.166142911484160       8.246594753408230E-002
 
          18 0
 s           3   1.00000000000000     
   3.37022769753360       0.273591105889083     
  0.613891182214980       0.264605406538605     
  0.166142911484160       8.246594753408230E-002
 
          19 0
 s           3   1.00000000000000     
   3.37022769753360       0.273591105889083     
  0.613891182214980       0.264605406538605     
  0.166142911484160       8.246594753408230E-002
 
          20 0
 s           3   1.00000000000000     
   3.37022769753360       0.273591105889083     
  0.613891182214980       0.264605406538605     
  0.166142911484160       8.246594753408230E-002
 
          21 0
 s           3   1.00000000000000     
   3.37022769753360       0.273591105889083     
  0.613891182214980       0.264605406538605     
  0.166142911484160       8.246594753408230E-002
 
          22 0
 s           3   1.00000000000000     
   3.37022769753360       0.273591105889083     
  0.613891182214980       0.264605406538605     
  0.166142911484160       8.246594753408230E-002
 
          23 0
 s           3   1.00000000000000     
   3.37022769753360       0.273591105889083     
  0.613891182214980       0.264605406538605     
  0.166142911484160       8.246594753408230E-002
 
          24 0
 s           3   1.00000000000000     
   3.37022769753360       0.273591105889083     
  0.613891182214980       0.264605406538605     
  0.166142911484160       8.246594753408230E-002
 
          25 0
 s           3   1.00000000000000     
   3.37022769753360       0.273591105889083     
  0.613891182214980       0.264605406538605     
  0.166142911484160       8.246594753408230E-002
 
          26 0
 s           3   1.00000000000000     
   3.37022769753360       0.273591105889083     
  0.613891182214980       0.264605406538605     
  0.166142911484160       8.246594753408230E-002
 
          27 0
 s           3   1.00000000000000     
   3.37022769753360       0.273591105889083     
  0.613891182214980       0.264605406538605     
  0.166142911484160       8.246594753408230E-002
 
          28 0
 s           3   1.00000000000000     
   3.37022769753360       0.273591105889083     
  0.613891182214980       0.264605406538605     
  0.166142911484160       8.246594753408230E-002
 
          29 0
 s           3   1.00000000000000     
   3.37022769753360       0.273591105889083     
  0.613891182214980       0.264605406538605     
  0.166142911484160       8.246594753408230E-002
 
          30 0
 s           3   1.00000000000000     
   3.37022769753360       0.273591105889083     
  0.613891182214980       0.264605406538605     
  0.166142911484160       8.246594753408230E-002
 
          31 0
 s           3   1.00000000000000     
   3.37022769753360       0.273591105889083     
  0.613891182214980       0.264605406538605     
  0.166142911484160       8.246594753408230E-002
 
          32 0
 s           3   1.00000000000000     
   3.37022769753360       0.273591105889083     
  0.613891182214980       0.264605406538605     
  0.166142911484160       8.246594753408230E-002
 
          33 0
 s           3   1.00000000000000     
   3.37022769753360       0.273591105889083     
  0.613891182214980       0.264605406538605     
  0.166142911484160       8.246594753408230E-002
 
          34 0
 s           3   1.00000000000000     
   3.37022769753360       0.273591105889083     
  0.613891182214980       0.264605406538605     
  0.166142911484160       8.246594753408230E-002
 
          35 0
 s           3   1.00000000000000     
   3.37022769753360       0.273591105889083     
  0.613891182214980       0.264605406538605     
  0.166142911484160       8.246594753408230E-002
 
          36 0
 s           3   1.00000000000000     
   3.37022769753360       0.273591105889083     
  0.613891182214980       0.264605406538605     
  0.166142911484160       8.246594753408230E-002
 
[MO]
Sym=     1a
Ene=  -0.855225477830515     
Spin= Alpha
Occup=     2.00000000
           1  6.154678953521527E-004
           2 -2.323036255229246E-004
           3 -3.119520994414290E-005
           4 -2.578827944252288E-005
           5 -2.481808485597290E-003
           6 -6.559349142161403E-003
           7 -3.198196831699189E-004
           8 -1.509325754167396E-004
           9  2.009116730876295E-004
          10 -7.035513594375398E-004
          11 -7.694297035489910E-005
          12  2.992681781177663E-004
          13 -4.554746503237270E-004
          14 -1.080407512853523E-003
          15  4.900527847652412E-004
          16 -8.463415177186151E-005
          17 -6.249847924097969E-002
          18 -4.479922301438792E-002
          19 -1.711861465450569E-002
          20 -1.275943649344834E-002
          21 -3.170433258619506E-002
          22 -1.200390258864190E-002
          23  8.291135815301475E-004
          24 -3.722436512634188E-002
          25 -0.208812239357326     
          26 -0.122849136690220     
          27  9.306771229570146E-003
          28  5.142734707716923E-002
          29 -0.547760391832239     
          30 -6.367493426447696E-003
          31  3.043380657419264E-003
          32 -7.236831514291854E-002
          33 -0.208728082378159     
          34  5.969579370088036E-002
          35 -0.117817986725609     
          36  3.106222906312772E-002
          37 -5.386316187178784E-002
          38  3.179849126874251E-002
          39 -2.695977086098124E-002
          40 -1.665176563231997E-002
          41 -0.101379204613171     
          42  1.831198719024951E-002
          43 -6.194874925314630E-004
          44  6.695097799619702E-004
          45  4.596199456078823E-003
          46 -6.338403626162924E-003
          47  1.742204170084101E-003
          48 -5.953489591953376E-004
          49 -1.781665758042935E-003
          50  4.205478792949984E-004
          51 -5.325459128312826E-002
          52  3.319913960274736E-002
          53  2.295031698452285E-002
          54 -1.838109158902071E-002
          55 -0.204744021361330     
          56  6.675854760618506E-002
          57  0.114559298199428     
          58  2.124050941221125E-002
          59 -2.093901308979968E-005
          60  9.211854565932054E-005
          61  1.785045078582081E-005
          62  1.251155007535633E-005
          63  1.223065768887255E-005
          64  2.017962788296155E-005
          65 -5.394459707147542E-004
          66  1.934844765954305E-005
          67 -1.076872634417678E-004
          68 -1.265352810739553E-002
          69  1.757719709501556E-003
          70 -1.618919022223545E-003
          71 -3.909150713578277E-002
          72 -3.872728191998921E-002
          73 -0.114138123197141     
          74 -3.956642081589817E-002
          75 -3.918211890143893E-002
          76 -8.795632886614346E-003
          77 -2.047830101512460E-003
          78 -1.971378102007627E-003
          79 -8.641019692107408E-003
          80 -3.841545452433266E-002
          81 -3.840279883560774E-002
Sym=     2a
Ene=  -0.842926901158808     
Spin= Alpha
Occup=     2.00000000
           1  1.205952189505297E-004
           2  7.429250866649445E-004
           3  2.682001067896638E-004
           4  3.302251165382248E-004
           5  6.099335085417517E-003
           6  7.502688376311946E-003
           7  1.492939925514586E-004
           8  1.459821416237823E-004
           9  8.441488379652423E-004
          10  1.259488124949634E-003
          11  3.005024366317577E-004
          12 -7.811620309936138E-004
          13  1.304501613132224E-003
          14  1.425585039135215E-003
          15 -1.046551394582669E-003
          16  1.799175229633510E-004
          17  5.465517332836502E-002
          18  2.818045612525548E-002
          19  1.358107758374122E-002
          20  8.646519706148912E-003
          21  2.670750899951931E-002
          22  2.734552482571691E-003
          23 -1.478819429654908E-003
          24  2.738064367422600E-002
          25  0.120368438794471     
          26  3.772120568792242E-002
          27 -6.859502256180303E-003
          28 -3.132022045369558E-002
          29  8.884725995252024E-002
          30 -0.116893079715604     
          31 -2.991556922558763E-003
          32  1.807654852872708E-002
          33 -3.179541145367765E-002
          34 -5.117665691592894E-002
          35 -3.844471157458599E-003
          36  1.618560394144161E-002
          37 -0.127682685529122     
          38 -3.268477619635971E-002
          39 -6.282315981409048E-002
          40 -2.172371950634879E-002
          41 -0.827933258297549     
          42  5.326060881457198E-002
          43 -1.900370970618491E-003
          44  4.093431102675015E-003
          45 -1.752401143873874E-003
          46 -1.334311822724042E-002
          47  1.509551937111430E-002
          48 -7.862769129850308E-004
          49 -6.979186030201446E-003
          50  1.586406165783519E-003
          51 -0.129940840597699     
          52 -2.598013386479173E-002
          53  6.356124474122823E-002
          54 -2.722848989723035E-002
          55 -4.079026511833158E-002
          56 -4.754554106089036E-002
          57  1.075144886362021E-002
          58  1.692801266100388E-002
          59  1.338582477347394E-005
          60  4.609326643871028E-005
          61  6.314588713916570E-005
          62 -1.110535581094854E-006
          63  3.927961338776352E-004
          64  1.685904800574921E-004
          65  7.674280631987312E-004
          66  5.030425075754653E-006
          67  2.979371219140263E-004
          68  1.128804776218944E-002
          69  4.477147525941563E-004
          70  3.133065708474611E-003
          71  2.546039525272586E-002
          72  2.357617132246736E-002
          73  3.016921660871640E-002
          74  4.708828762085998E-003
          75  2.848800148151883E-003
          76 -3.347941685186276E-005
          77  5.879438419842083E-004
          78  2.858847414253085E-004
          79 -6.276673606817238E-004
          80  1.768665769049439E-003
          81  9.480213283423062E-004
Sym=     3a
Ene=  -0.825428262500147     
Spin= Alpha
Occup=     2.00000000
           1  5.419337135641604E-003
           2  7.027055122105081E-003
           3  2.840985852951989E-003
           4  3.565627417215189E-003
           5  4.802918351416040E-002
           6  4.176010034217994E-002
           7 -9.462961515138659E-004
           8 -1.190857572208250E-003
           9  8.843906305056578E-003
          10  8.395616453297212E-003
          11  2.287055839960403E-003
          12 -6.639062542521631E-003
          13  1.095804946156993E-002
          14  8.640407241639132E-003
          15 -8.364723585587928E-003
          16  9.516253402074376E-004
          17  0.250578291642202     
          18  8.686275860602197E-002
          19  4.949543555366340E-002
          20  1.804018610855412E-002
          21  0.132042530454754     
          22 -1.020339022670386E-002
          23 -1.311329220268781E-002
          24  0.111726734525782     
          25  0.318623649078839     
          26  8.931996295358229E-003
          27 -4.443385164434033E-002
          28 -9.793613548349175E-002
          29 -6.271208130055103E-002
          30 -0.362698827226482     
          31 -9.518553319695637E-002
          32 -2.492405151161096E-002
          33 -0.108908285881239     
          34 -4.523843972512737E-002
          35 -6.622209765107151E-002
          36  1.363991419338207E-002
          37 -2.000524276115836E-002
          38  5.341542924038266E-002
          39 -1.985288345314591E-003
          40 -1.363689587679673E-002
          41  0.309986455167405     
          42  1.085745780917885E-002
          43 -4.808411224311158E-003
          44 -7.577033771165789E-004
          45  7.633426467971164E-003
          46 -4.086062967806409E-004
          47 -7.224820171190523E-003
          48  3.560335847226906E-004
          49  3.289033738187258E-005
          50  6.186896367444990E-004
          51 -6.978859061214436E-002
          52  8.735930832109785E-002
          53 -2.277536598176794E-003
          54 -2.905493426930073E-002
          55 -0.269586997491953     
          56 -4.588637252250088E-003
          57  8.985116910157298E-002
          58  3.111880689816874E-002
          59  2.005181022404994E-004
          60  1.406125661998042E-003
          61  1.238506214303775E-003
          62  2.430676554017041E-004
          63  3.351675341811949E-003
          64  2.045217177223718E-003
          65  4.521807537535556E-003
          66  3.804758355801005E-004
          67  2.857818247323638E-003
          68  5.717708829114240E-002
          69  1.083956380648405E-002
          70  2.034542657727260E-002
          71  6.920086290959127E-002
          72  6.855996165782381E-002
          73  3.985430546136005E-002
          74  1.474816092353093E-003
          75 -3.585909254937702E-002
          76 -1.453242358620345E-002
          77 -7.523883427688125E-003
          78 -1.625749339847333E-002
          79 -2.666831801979311E-002
          80 -5.179854200949765E-002
          81 -6.933373836647835E-002
Sym=     4a
Ene=  -0.818189778626033     
Spin= Alpha
Occup=     2.00000000
           1  9.118461611870216E-004
           2  1.039680937768053E-003
           3  8.014295519760117E-004
           4  5.819140217137085E-004
           5  9.604355774949535E-003
           6  6.868177880247168E-003
           7  2.337649708960923E-003
           8 -3.857149170657626E-004
           9  1.332251493199178E-003
          10  1.088637175231156E-003
          11  8.590131799636235E-004
          12 -1.161191403410792E-003
          13  4.236365664386918E-003
          14  2.819281207544573E-003
          15 -2.019857316139267E-003
          16  5.049386254867249E-004
          17  2.704002793899541E-002
          18  4.284430985402541E-003
          19  2.456803205436578E-002
          20 -2.256527233778553E-004
          21  2.163542857130218E-002
          22 -2.752197572700686E-003
          23  8.920881957807518E-003
          24  1.647435313084215E-002
          25  9.129621953921840E-002
          26  1.366808758923770E-002
          27  8.668511684689413E-002
          28 -2.389192566879299E-002
          29  7.583131788204788E-004
          30 -8.862039649647965E-002
          31  0.420166159350722     
          32 -1.360162411467600E-002
          33 -0.401354673765827     
          34  4.345352114502767E-002
          35 -5.069398512202819E-002
          36  5.999236650155353E-002
          37 -0.140491622512477     
          38  9.645609841531654E-002
          39 -1.207629800258907E-002
          40 -4.328046397020763E-002
          41  7.290459449752699E-002
          42  6.198374015923052E-003
          43  2.262049795188130E-002
          44 -9.563473286931764E-004
          45  1.786671826918019E-003
          46 -3.844669218829579E-004
          47 -1.402204905035061E-003
          48 -3.676657331526010E-003
          49 -1.578924359125824E-004
          50 -4.474042012974857E-003
          51  0.103838308959820     
          52 -5.630349296582908E-002
          53 -2.838953847088905E-004
          54  2.978088008060502E-002
          55  0.299040083616617     
          56 -7.218544724559395E-002
          57 -1.347969027578133E-002
          58 -4.112014908155416E-002
          59  6.341404504343324E-005
          60  3.062074361300545E-004
          61  7.185103615208141E-005
          62  6.012866095474302E-005
          63  8.071783534367611E-004
          64 -5.513334093560104E-006
          65  2.831614060895606E-003
          66  1.468646917619919E-004
          67  1.097212592939951E-003
          68 -5.334721853596787E-003
          69 -1.881992896488222E-004
          70  8.737865881524070E-003
          71  6.170422006263461E-002
          72  6.848021923810388E-004
          73  8.306664372783936E-003
          74 -0.120976886466168     
          75 -9.203952992641218E-002
          76 -3.681707115918208E-002
          77 -2.782032713932885E-002
          78  1.939294636278089E-002
          79  2.303821684193431E-002
          80  0.108495410443195     
          81  6.344860602699401E-002
Sym=     5a
Ene=  -0.793740611881488     
Spin= Alpha
Occup=     2.00000000
           1  4.945194849310297E-002
           2  3.299712288342614E-002
           3  1.657805073364946E-002
           4  1.890678688435211E-002
           5  0.169997962193258     
           6  7.739751329720139E-002
           7 -1.019428195650376E-002
           8 -2.625171775983605E-002
           9  3.398177065798526E-002
          10  1.705153965092030E-002
          11  6.434364803990789E-003
          12 -2.718602893411697E-002
          13  4.758906574102850E-002
          14  2.056750098960127E-002
          15 -3.365719881777548E-002
          16 -1.603114928735082E-003
          17  0.361201897686554     
          18 -1.070190309701561E-002
          19  3.056317813909365E-002
          20 -0.115965839708075     
          21  0.325904865926033     
          22 -7.882260520768250E-002
          23 -4.020066124072656E-002
          24  0.137285793875129     
          25 -0.134807275493049     
          26 -0.165092677861896     
          27 -3.203623576404599E-002
          28 -8.068728619082099E-002
          29 -9.791458825703669E-002
          30  0.189710215766701     
          31  2.144480536239229E-003
          32 -0.175456642773474     
          33  6.590984896277216E-002
          34  6.780736785101801E-002
          35 -1.313558885171191E-002
          36 -5.755638449694591E-002
          37  7.915236887430892E-002
          38 -5.397021990178806E-002
          39  3.785817934105277E-003
          40  1.111205943055380E-002
          41 -0.144072188644752     
          42 -2.749011900421215E-002
          43  5.737945371236450E-003
          44 -3.635579123529400E-003
          45 -3.366786632665007E-003
          46  1.297941290667226E-003
          47  2.068845341997781E-003
          48 -3.824151568114199E-004
          49 -2.234303484344665E-004
          50 -5.220092430593469E-004
          51  0.117073017854851     
          52 -6.983666448493737E-002
          53  2.941585320457566E-003
          54  2.043576393928609E-002
          55  0.125585158676398     
          56  7.661247813770378E-002
          57  4.020490265522770E-003
          58 -6.590405032339160E-002
          59  4.697682165713050E-003
          60  1.456661892322535E-002
          61  1.141753242340533E-002
          62  3.667076261670778E-003
          63  6.048286137390890E-003
          64  8.159861435955262E-003
          65  9.354108922277686E-003
          66  5.146115366356180E-003
          67  1.549976133149174E-002
          68  9.584328776779776E-002
          69  7.232524649328251E-002
          70  7.546978514594287E-002
          71 -4.087491191467536E-002
          72 -6.200869146054955E-002
          73  6.188737001321831E-002
          74  1.534581216058722E-002
          75  5.581802031738315E-003
          76  3.253506252332371E-002
          77  1.971438567428024E-002
          78  2.958608270756485E-002
          79  4.233703647026446E-002
          80  3.002333183450392E-002
          81  2.229991072767831E-002
Sym=     6a
Ene=  -0.774810996396160     
Spin= Alpha
Occup=     2.00000000
           1 -6.377248712810099E-002
           2 -2.927719590304525E-002
           3 -2.108672264836843E-002
           4 -3.091987186911069E-002
           5 -0.217565270569135     
           6 -4.576965753094334E-002
           7  6.726487204118425E-003
           8 -1.314219999961008E-002
           9 -8.684781583247113E-002
          10 -3.091034661857423E-002
          11 -1.500269208156370E-002