[Molden Format]
[Title]
[Atoms] AU
C      1     6  0.86743310946067E+01 -0.20176703702162E+01 -0.17306976238461E+01
N      2     7  0.65746981706416E+01 -0.36941866432457E+00 -0.12191315939231E+01
C      3     6  0.67748316192435E+01  0.20201331325025E+01 -0.28402613069278E+00
C      4     6  0.43946967823091E+01  0.29798690566999E+01 -0.10934931308210E+00
N      5     7  0.27651251512187E+01  0.11561108611364E+01 -0.94309247003927E+00
C      6     6  0.51497326864513E-01  0.13982781724050E+01 -0.12163006794885E+01
C      7     6 -0.14704233952486E+01  0.31080985897016E+00  0.10103359635092E+01
N      8     7 -0.18514517786599E+01  0.22920196527662E+01  0.30049183636446E+01
C      9     6 -0.41157656036192E+01 -0.74825214094370E+00  0.24409205048974E+00
C     10     6 -0.37394817125996E+01 -0.31021425385484E+01 -0.13960711548191E+01
C     11     6 -0.55322883590604E+01 -0.15319212875442E+01  0.26538529657225E+01
C     12     6 -0.56626366326756E+01  0.12253931064667E+01 -0.11921161033427E+01
C     13     6  0.41503861082018E+01 -0.85773560556602E+00 -0.16076819979093E+01
H     14     1  0.80055437765017E+01 -0.38654815926002E+01 -0.23323579234750E+01
H     15     1  0.98539951176359E+01 -0.12147424986589E+01 -0.32194275966844E+01
H     16     1  0.98361531860312E+01 -0.22310124164296E+01 -0.41644876836348E-01
H     17     1  0.85548801890158E+01  0.28728066441474E+01  0.17535871894596E+00
H     18     1  0.37986012450352E+01  0.48236227941937E+01  0.47594040062146E+00
H     19     1 -0.49498184966447E+00  0.38964372326346E+00 -0.29322503211688E+01
H     20     1 -0.39239547845649E+00  0.33946449144402E+01 -0.15001091177890E+01
H     21     1 -0.39662457768793E+00 -0.12310201213074E+01  0.18802989085941E+01
H     22     1 -0.29592643173061E+01  0.14919692983371E+01  0.44053821743093E+01
H     23     1 -0.20430544607493E+00  0.29512268352999E+01  0.37884280091593E+01
H     24     1 -0.28603814552980E+01  0.37831338019155E+01  0.22586193602567E+01
H     25     1 -0.55664088781480E+01 -0.39354344004061E+01 -0.18170309997303E+01
H     26     1 -0.26239903929262E+01 -0.45201913595228E+01 -0.41392522323278E+00
H     27     1 -0.28535279362792E+01 -0.26801106632327E+01 -0.31991540988931E+01
H     28     1 -0.71325076859346E+01 -0.27090024660211E+01  0.21326845137389E+01
H     29     1 -0.43552262576409E+01 -0.26630022022350E+01  0.39042820337739E+01
H     30     1 -0.63285778195108E+01  0.66171653658759E-01  0.36767313736940E+01
H     31     1 -0.75086328147362E+01  0.43673889641709E+00 -0.16216666763020E+01
H     32     1 -0.47996162039624E+01  0.17388490397843E+01 -0.29819114914736E+01
H     33     1 -0.59931531917428E+01  0.29348423571621E+01 -0.96151555798995E-01
H     34     1  0.34069020199138E+01 -0.25891254720351E+01 -0.23620135926561E+01
[GTO]
           1 0
 s           4   1.00000000000000     
   51.0493630955799      -0.163120632101274     
   8.79112274068875      -0.199110245810007     
  0.706404222589298       0.318820477536558     
  0.269228134134116       0.127065041842404     
 p           4   1.00000000000000     
   5.82636561408000       0.737164515452096     
   1.51068960187200       0.682163716148503     
  0.532564832880000       0.357830539292537     
  0.212023236906000       5.398303027584788E-002
 
           2 0
 s           4   1.00000000000000     
   63.5940244669410      -0.192343884147216     
   10.9514172315237      -0.234781079249537     
  0.879993102573770       0.375937539017009     
  0.335387152965211       0.149828892718628     
 p           4   1.00000000000000     
   7.29650404814951       0.976586663156674     
   1.89187454507126       0.903722267303458     
  0.666944321108241       0.474049584615364     
  0.265522026741309       7.151606771501186E-002
 
           3 0
 s           4   1.00000000000000     
   51.0493630955799      -0.163120632101274     
   8.79112274068875      -0.199110245810007     
  0.706404222589298       0.318820477536558     
  0.269228134134116       0.127065041842404     
 p           4   1.00000000000000     
   5.82636561408000       0.737164515452096     
   1.51068960187200       0.682163716148503     
  0.532564832880000       0.357830539292537     
  0.212023236906000       5.398303027584788E-002
 
           4 0
 s           4   1.00000000000000     
   51.0493630955799      -0.163120632101274     
   8.79112274068875      -0.199110245810007     
  0.706404222589298       0.318820477536558     
  0.269228134134116       0.127065041842404     
 p           4   1.00000000000000     
   5.82636561408000       0.737164515452096     
   1.51068960187200       0.682163716148503     
  0.532564832880000       0.357830539292537     
  0.212023236906000       5.398303027584788E-002
 
           5 0
 s           4   1.00000000000000     
   63.5940244669410      -0.192343884147216     
   10.9514172315237      -0.234781079249537     
  0.879993102573770       0.375937539017009     
  0.335387152965211       0.149828892718628     
 p           4   1.00000000000000     
   7.29650404814951       0.976586663156674     
   1.89187454507126       0.903722267303458     
  0.666944321108241       0.474049584615364     
  0.265522026741309       7.151606771501186E-002
 
           6 0
 s           4   1.00000000000000     
   51.0493630955799      -0.163120632101274     
   8.79112274068875      -0.199110245810007     
  0.706404222589298       0.318820477536558     
  0.269228134134116       0.127065041842404     
 p           4   1.00000000000000     
   5.82636561408000       0.737164515452096     
   1.51068960187200       0.682163716148503     
  0.532564832880000       0.357830539292537     
  0.212023236906000       5.398303027584788E-002
 
           7 0
 s           4   1.00000000000000     
   51.0493630955799      -0.163120632101274     
   8.79112274068875      -0.199110245810007     
  0.706404222589298       0.318820477536558     
  0.269228134134116       0.127065041842404     
 p           4   1.00000000000000     
   5.82636561408000       0.737164515452096     
   1.51068960187200       0.682163716148503     
  0.532564832880000       0.357830539292537     
  0.212023236906000       5.398303027584788E-002
 
           8 0
 s           4   1.00000000000000     
   63.5940244669410      -0.192343884147216     
   10.9514172315237      -0.234781079249537     
  0.879993102573770       0.375937539017009     
  0.335387152965211       0.149828892718628     
 p           4   1.00000000000000     
   7.29650404814951       0.976586663156674     
   1.89187454507126       0.903722267303458     
  0.666944321108241       0.474049584615364     
  0.265522026741309       7.151606771501186E-002
 
           9 0
 s           4   1.00000000000000     
   51.0493630955799      -0.163120632101274     
   8.79112274068875      -0.199110245810007     
  0.706404222589298       0.318820477536558     
  0.269228134134116       0.127065041842404     
 p           4   1.00000000000000     
   5.82636561408000       0.737164515452096     
   1.51068960187200       0.682163716148503     
  0.532564832880000       0.357830539292537     
  0.212023236906000       5.398303027584788E-002
 
          10 0
 s           4   1.00000000000000     
   51.0493630955799      -0.163120632101274     
   8.79112274068875      -0.199110245810007     
  0.706404222589298       0.318820477536558     
  0.269228134134116       0.127065041842404     
 p           4   1.00000000000000     
   5.82636561408000       0.737164515452096     
   1.51068960187200       0.682163716148503     
  0.532564832880000       0.357830539292537     
  0.212023236906000       5.398303027584788E-002
 
          11 0
 s           4   1.00000000000000     
   51.0493630955799      -0.163120632101274     
   8.79112274068875      -0.199110245810007     
  0.706404222589298       0.318820477536558     
  0.269228134134116       0.127065041842404     
 p           4   1.00000000000000     
   5.82636561408000       0.737164515452096     
   1.51068960187200       0.682163716148503     
  0.532564832880000       0.357830539292537     
  0.212023236906000       5.398303027584788E-002
 
          12 0
 s           4   1.00000000000000     
   51.0493630955799      -0.163120632101274     
   8.79112274068875      -0.199110245810007     
  0.706404222589298       0.318820477536558     
  0.269228134134116       0.127065041842404     
 p           4   1.00000000000000     
   5.82636561408000       0.737164515452096     
   1.51068960187200       0.682163716148503     
  0.532564832880000       0.357830539292537     
  0.212023236906000       5.398303027584788E-002
 
          13 0
 s           4   1.00000000000000     
   51.0493630955799      -0.163120632101274     
   8.79112274068875      -0.199110245810007     
  0.706404222589298       0.318820477536558     
  0.269228134134116       0.127065041842404     
 p           4   1.00000000000000     
   5.82636561408000       0.737164515452096     
   1.51068960187200       0.682163716148503     
  0.532564832880000       0.357830539292537     
  0.212023236906000       5.398303027584788E-002
 
          14 0
 s           3   1.00000000000000     
   3.37022769753360       0.273591105889083     
  0.613891182214980       0.264605406538605     
  0.166142911484160       8.246594753408230E-002
 
          15 0
 s           3   1.00000000000000     
   3.37022769753360       0.273591105889083     
  0.613891182214980       0.264605406538605     
  0.166142911484160       8.246594753408230E-002
 
          16 0
 s           3   1.00000000000000     
   3.37022769753360       0.273591105889083     
  0.613891182214980       0.264605406538605     
  0.166142911484160       8.246594753408230E-002
 
          17 0
 s           3   1.00000000000000     
   3.37022769753360       0.273591105889083     
  0.613891182214980       0.264605406538605     
  0.166142911484160       8.246594753408230E-002
 
          18 0
 s           3   1.00000000000000     
   3.37022769753360       0.273591105889083     
  0.613891182214980       0.264605406538605     
  0.166142911484160       8.246594753408230E-002
 
          19 0
 s           3   1.00000000000000     
   3.37022769753360       0.273591105889083     
  0.613891182214980       0.264605406538605     
  0.166142911484160       8.246594753408230E-002
 
          20 0
 s           3   1.00000000000000     
   3.37022769753360       0.273591105889083     
  0.613891182214980       0.264605406538605     
  0.166142911484160       8.246594753408230E-002
 
          21 0
 s           3   1.00000000000000     
   3.37022769753360       0.273591105889083     
  0.613891182214980       0.264605406538605     
  0.166142911484160       8.246594753408230E-002
 
          22 0
 s           3   1.00000000000000     
   3.37022769753360       0.273591105889083     
  0.613891182214980       0.264605406538605     
  0.166142911484160       8.246594753408230E-002
 
          23 0
 s           3   1.00000000000000     
   3.37022769753360       0.273591105889083     
  0.613891182214980       0.264605406538605     
  0.166142911484160       8.246594753408230E-002
 
          24 0
 s           3   1.00000000000000     
   3.37022769753360       0.273591105889083     
  0.613891182214980       0.264605406538605     
  0.166142911484160       8.246594753408230E-002
 
          25 0
 s           3   1.00000000000000     
   3.37022769753360       0.273591105889083     
  0.613891182214980       0.264605406538605     
  0.166142911484160       8.246594753408230E-002
 
          26 0
 s           3   1.00000000000000     
   3.37022769753360       0.273591105889083     
  0.613891182214980       0.264605406538605     
  0.166142911484160       8.246594753408230E-002
 
          27 0
 s           3   1.00000000000000     
   3.37022769753360       0.273591105889083     
  0.613891182214980       0.264605406538605     
  0.166142911484160       8.246594753408230E-002
 
          28 0
 s           3   1.00000000000000     
   3.37022769753360       0.273591105889083     
  0.613891182214980       0.264605406538605     
  0.166142911484160       8.246594753408230E-002
 
          29 0
 s           3   1.00000000000000     
   3.37022769753360       0.273591105889083     
  0.613891182214980       0.264605406538605     
  0.166142911484160       8.246594753408230E-002
 
          30 0
 s           3   1.00000000000000     
   3.37022769753360       0.273591105889083     
  0.613891182214980       0.264605406538605     
  0.166142911484160       8.246594753408230E-002
 
          31 0
 s           3   1.00000000000000     
   3.37022769753360       0.273591105889083     
  0.613891182214980       0.264605406538605     
  0.166142911484160       8.246594753408230E-002
 
          32 0
 s           3   1.00000000000000     
   3.37022769753360       0.273591105889083     
  0.613891182214980       0.264605406538605     
  0.166142911484160       8.246594753408230E-002
 
          33 0
 s           3   1.00000000000000     
   3.37022769753360       0.273591105889083     
  0.613891182214980       0.264605406538605     
  0.166142911484160       8.246594753408230E-002
 
          34 0
 s           3   1.00000000000000     
   3.37022769753360       0.273591105889083     
  0.613891182214980       0.264605406538605     
  0.166142911484160       8.246594753408230E-002
 
[MO]
Sym=     1a
Ene=   -1.01414057867408     
Spin= Alpha
Occup=     2.00000000
           1 -4.633112073636056E-003
           2 -1.536910167507044E-002
           3  7.562410995552818E-003
           4  2.165087884053234E-003
           5  0.263271600314129     
           6 -0.180638008734087     
           7  9.074943877563527E-002
           8  2.619258128399801E-002
           9  0.173171878264547     
          10 -9.817809330005402E-002
          11 -6.922586552208682E-002
          12 -3.049738854848280E-002
          13  0.194978891496736     
          14 -2.170315614528904E-003
          15 -0.123751718536791     
          16 -4.080786439308189E-002
          17  0.325738492171590     
          18  0.192296374468627     
          19 -5.724801855556649E-002
          20  5.951892866947947E-003
          21  3.593093192989670E-003
          22  3.452268625724116E-002
          23 -7.719716988038156E-003
          24 -6.723107839313614E-004
          25 -1.228578717958610E-002
          26  2.784565162850394E-003
          27 -5.130165413939402E-003
          28 -7.342926998555252E-004
          29 -1.343892892330879E-002
          30 -6.573420782114382E-004
          31  3.527282085813880E-003
          32  6.098999256442959E-003
          33 -2.736183800390093E-003
          34 -1.870283510721975E-003
          35 -1.362116469225810E-003
          36 -5.171066884444798E-004
          37 -2.491824238607976E-004
          38 -9.881265842530576E-005
          39 -3.242721889713862E-004
          40 -1.646177457367917E-004
          41 -3.823870503232602E-004
          42 -3.881970826078660E-004
          43 -2.731278449228322E-004
          44  1.958214519251368E-004
          45 -5.957199516553434E-004
          46 -6.066594655080070E-004
          47  9.391302779107454E-005
          48 -2.884542423987844E-004
          49  0.323259317917710     
          50  4.264162428700474E-002
          51  0.149025074607933     
          52  6.943048690772355E-002
          53 -8.924933061616012E-004
          54 -1.858437210663588E-003
          55 -1.838599554100076E-003
          56  9.336506202194702E-003
          57  1.232766481862117E-002
          58 -2.084169100659502E-004
          59 -3.412553476611590E-003
          60 -5.238061470824540E-004
          61 -2.262252922124469E-003
          62 -2.304835946623150E-003
          63 -3.240740710391097E-003
          64 -1.403698736786711E-005
          65 -2.450645388394896E-005
          66 -4.946164905259191E-005
          67 -1.351399443879239E-005
          68 -6.307474896433426E-005
          69 -9.961336505508751E-005
          70 -3.281179462983054E-006
          71 -1.369720156138473E-004
          72 -1.482707007016478E-004
          73  2.940367340798365E-002
Sym=     2a
Ene=   -1.00091596521095     
Spin= Alpha
Occup=     2.00000000
           1  2.429417541435657E-003
           2 -2.009577102945344E-003
           3  1.305279300041790E-003
           4  2.543830919797544E-004
           5  1.358941156011894E-002
           6 -2.355712843597525E-003
           7  6.405874634367912E-004
           8 -1.296039754090736E-003
           9  5.840826734101446E-003
          10  3.001387754315042E-004
          11 -2.514591311248834E-003
          12 -1.749911805415437E-003
          13 -1.309806220195823E-002
          14  1.851361662009404E-002
          15  6.526042361576485E-003
          16 -5.520861139613839E-004
          17 -8.245543157270412E-002
          18  5.796562393937880E-002
          19 -3.448819717053768E-003
          20 -1.841622064038286E-002
          21 -0.143160051584883     
          22  1.041352353442435E-002
          23  8.319625591408052E-003
          24 -7.659928022289181E-002
          25 -0.317815233075099     
          26 -4.577659422919011E-005
          27 -0.128290620268943     
          28 -8.933346494576325E-002
          29 -0.541208080504241     
          30 -4.136823399600368E-002
          31  0.102107613755236     
          32  0.129478898625007     
          33 -5.233611022277965E-002
          34 -3.931989202769706E-002
          35 -2.953365671486548E-002
          36 -2.184422582931491E-002
          37 -2.411278565934961E-003
          38 -1.727895139471193E-003
          39 -5.072874643180217E-003
          40 -3.375727970524125E-003
          41 -1.134815238985614E-002
          42 -1.144282389176995E-002
          43 -8.469796406164548E-003
          44  3.620762766600840E-003
          45 -8.828301043368771E-003
          46 -9.744135759400346E-003
          47  1.661092419511482E-003
          48 -7.053870261486267E-003
          49 -5.207960444924861E-003
          50  1.928409909656198E-002
          51 -6.397621853946355E-003
          52 -5.306678033256042E-003
          53  2.702890049027009E-004
          54  1.956565379748264E-004
          55  1.605117913447317E-004
          56  5.097077082787245E-004
          57 -4.110822514408951E-003
          58 -1.851076746137000E-002
          59 -3.398314338290695E-002
          60 -6.353425553267475E-002
          61 -0.115268397270893     
          62 -0.135027925608814     
          63 -0.127389909647313     
          64 -3.621419049366560E-004
          65 -2.094627617644911E-004
          66 -5.828053491632063E-004
          67 -1.683779176259730E-004
          68 -2.517968939448851E-003
          69 -4.637387218361258E-003
          70 -1.519448111284759E-004
          71 -9.188751161874450E-004
          72 -4.931608360038651E-003
          73 -1.410882549975967E-003
Sym=     3a
Ene=  -0.979488664735442     
Spin= Alpha
Occup=     2.00000000
           1 -4.333040670300881E-002
           2  3.419887090120195E-002
           3 -2.442692955199730E-002
           4 -7.732829943936805E-003
           5 -0.227453659557170     
           6  3.285122454513984E-002
           7 -1.842208537403384E-002
           8 -6.158787766549521E-003
           9 -0.103137275310197     
          10  1.260815194249534E-002
          11  5.383545648252169E-002
          12  2.062417781794256E-002
          13  3.975011052611954E-002
          14 -0.101053351959243     
          15 -1.707068489143443E-002
          16 -1.191490060146423E-002
          17  0.412151234308809     
          18 -0.222164339124235     
          19  1.097988599472774E-002
          20 -1.575729582222485E-003
          21  0.346760476293745     
          22  0.141015354272406     
          23 -2.970629939555429E-002
          24  4.248268460668498E-002
          25  7.382918195301987E-002
          26  8.010738343325846E-002
          27 -5.197566600108656E-003
          28 -9.650862078953093E-002
          29 -0.213242377126565     
          30  3.409646591168422E-002
          31 -1.078483499777206E-002
          32 -4.633508868019417E-002
          33  1.468924220622205E-003
          34  1.056992244224790E-002
          35 -9.195207422802560E-004
          36 -9.565786922376980E-003
          37  3.378879151756549E-003
          38  2.618349376354583E-003
          39  2.879737702326267E-003
          40  6.645858909656709E-004
          41 -5.978647285092772E-003
          42 -3.251476536597959E-003
          43 -3.487132379335865E-003
          44 -2.675266684026068E-004
          45 -4.570652837609305E-004
          46  1.284872815214807E-003
          47 -5.287544653812509E-004
          48 -1.306953591288621E-003
          49 -9.176568455119579E-003
          50 -0.163431689663918     
          51  3.758542695395928E-002
          52  3.314594388897020E-003
          53 -5.650074185850844E-003
          54 -4.590440093423018E-003
          55 -4.701193467803251E-003
          56 -1.135543410279401E-002
          57  1.334878059819958E-002
          58  7.011027373330385E-002
          59  6.893323199231731E-002
          60  2.500893631991514E-002
          61 -7.689680420444554E-002
          62 -5.916376673045923E-002
          63 -6.326825539390155E-002
          64 -5.461747072752355E-005
          65  5.644231200578674E-004
          66  2.219223445756193E-003
          67  9.068447551263727E-005
          68 -1.336007316760403E-003
          69 -3.673280398119845E-003
          70  7.985370815740489E-005
          71  1.170504119346034E-003
          72 -2.069690658771795E-003
          73  6.539967647670115E-003
Sym=     4a
Ene=  -0.956789756934867     
Spin= Alpha
Occup=     2.00000000
           1 -0.128481974599459     
           2  8.452548859240212E-002
           3 -4.689895752026658E-002
           4 -1.447586155810869E-002
           5 -0.335934369282750     
           6  1.711933110765239E-002
           7  0.110110368100329     
           8  3.844358251487483E-002
           9  3.183284406700273E-002
          10 -6.612364727945172E-002
          11  8.085488650381947E-002
          12  2.554401047928485E-002
          13  0.234024967752352     
          14 -4.980541580455979E-002
          15 -5.533342046350390E-002
          16 -2.241698908710850E-002
          17  0.154929631823033     
          18  0.110399084078397     
          19  0.155978158363112     
          20  5.014044200665535E-002
          21 -0.158027639125665     
          22  7.614079949741764E-002
          23  6.048331695879249E-002
          24 -5.190399957590042E-002
          25 -0.265016747842509     
          26 -1.338147845225653E-002
          27 -7.487612534209890E-003
          28  5.481055187112582E-002
          29  0.189029483015703     
          30 -1.875582715291907E-002
          31  0.149435090646511     
          32  0.171505490408533     
          33 -8.691702629217000E-002
          34 -5.387965486126459E-002
          35 -2.294362451268907E-002
          36 -7.750735054657812E-003
          37 -1.747272567168563E-002
          38 -6.234652892012521E-003
          39 -1.537233648283221E-002
          40 -8.971175379857747E-003
          41 -1.138063036931666E-002
          42 -1.098113102043788E-002
          43 -4.311738711382958E-003
          44  1.007169777075124E-002
          45 -1.677554160090521E-002
          46 -1.554025243125698E-002
          47  6.859484591934889E-003
          48 -7.772358378542890E-003
          49 -0.181055464264170     
          50 -0.107663145239213     
          51  6.154649803147303E-002
          52  6.278235994257484E-003
          53 -2.477157578539462E-002
          54 -1.764031399650896E-002
          55 -1.777192308373754E-002
          56  3.214050043782069E-003
          57  4.776082366810400E-002
          58 -4.900799185585150E-002
          59 -2.846320640197876E-002
          60 -7.277366918732385E-002
          61  8.807197543173505E-002
          62  0.110389185795989     
          63  8.400385015305353E-002
          64 -8.060979160709983E-004
          65 -3.463361821856136E-003
          66 -5.075179472422036E-003
          67 -1.033108103633167E-003
          68 -2.935316161184249E-003
          69  1.300360258473665E-003
          70 -1.120149340699033E-003
          71 -5.113782505523894E-003
          72 -1.440277985536882E-003
          73 -5.511652564858560E-002
Sym=     5a
Ene=  -0.950965752780136     
Spin= Alpha
Occup=     2.00000000
           1 -7.694092356598617E-003
           2 -1.434175976912190E-002
           3 -2.818940344115065E-002
           4 -1.267869865736772E-002
           5 -5.679047375980596E-002
           6 -0.129914631130916     
           7 -0.171313819855772     
           8 -8.022681501879310E-002
           9 -0.263679686465414     
          10  6.441304100241584E-002
          11  2.710568625580140E-002
          12  9.480825147855903E-003
          13 -0.271318885173520     
          14 -2.190293301566314E-002
          15  4.404364218310244E-002
          16  3.331306587427154E-003
          17  8.830195787235819E-002
          18 -3.796300416333026E-002
          19 -0.275392735282651     
          20 -0.132560487879146     
          21 -5.134257637077041E-002
          22  7.596963011006805E-002
          23 -4.137163175661208E-002
          24 -7.211304726989065E-002
          25 -0.201762887074401     
          26  1.161352521534000E-002
          27 -2.094681035827243E-002
          28  1.317724513256402E-002
          29  0.153875272104975     
          30 -1.671080675831224E-002
          31  0.139550561118607     
          32  0.161840512249143     
          33 -7.285958645766187E-002
          34 -4.050407830766511E-002
          35 -2.048347912754685E-002
          36 -1.072721191185708E-002
          37 -1.239531740952666E-002
          38 -3.300422473157988E-003
          39 -1.132940023807984E-002
          40 -7.549591901177059E-003
          41 -1.183013176996483E-002
          42 -1.023277166944247E-002
          43 -4.466879720101600E-003
          44  9.223678405323376E-003
          45 -1.488001013374532E-002
          46 -1.287099246732410E-002
          47  5.743346389460492E-003
          48 -7.427694620995998E-003
          49  0.326129247989681     
          50 -8.035477522688506E-002
          51 -1.005988590731488E-003
          52 -8.638714988464458E-003
          53  8.618703702581715E-003
          54 -4.448418031159597E-003
          55 -6.033688902181544E-003
          56 -4.435383615072690E-002
          57 -5.852478401850748E-002
          58  7.315170171516176E-003
          59 -3.577592183285113E-002
          60 -4.890833267434871E-002
          61  7.767861350274514E-002
          62  9.461944121142413E-002
          63  7.241170256114664E-002
          64 -8.013090718101327E-004
          65 -2.427892141386948E-003
          66 -1.746065989025933E-003
          67 -1.054913641342051E-003
          68 -2.985049656553292E-003
          69  7.862335439845742E-004
          70 -1.101604525148199E-003
          71 -3.913727552235516E-003
          72 -1.731325862069064E-003
          73  0.102075711107667     
Sym=     6a
Ene=  -0.940865538058765     
Spin= Alpha
Occup=     2.00000000
           1  0.210270533504986     
           2 -9.398894045419427E-002
           3  8.779614105394243E-002
           4  2.959489834585604E-002
           5  0.344570494867583     
           6  0.189184527067863     
           7 -4.252792579203814E-002
           8 -4.661362796560381E-003
           9  9.110276424890645E-002
          10  4.995949953026670E-002
          11 -8.936906623258828E-002
          12 -3.174744878372196E-002
          13  1.012563402353295E-002
          14 -4.019776700891225E-002
          15  1.771244575360394E-002
          16 -2.037996124367331E-003
          17  5.532955278933354E-002
          18 -0.209643821126321     
          19  0.151347943239568     
          20  1.118304874919664E-002
          21  0.189639592701072     
          22  0.109685151416466     
          23  5.066078014084330E-002
          24 -1.943485010983433E-002
          25 -0.216223992848381     
          26  9.445394777715403E-002
          27  2.487774104251265E-002
          28 -6.861996365162686E-002
          29  9.428095967776939E-002
          30  6.381536236584243E-002
          31  0.237435631830956     
          32  0.139165434913577     
          33 -0.131234162620957     
          34 -5.266556097773697E-002
          35 -2.694064133031581E-002
          36 -3.308129165874351E-002
          37 -2.268395767146929E-002
          38 -3.761590204245342E-003
          39 -1.847690048078533E-002
          40 -1.473824148744981E-002
          41 -3.796562490789067E-002
          42 -2.547845164063992E-002
          43 -1.441455344613956E-002
          44  1.738617998536092E-002
          45 -2.556511443801981E-002
          46 -1.799237583644408E-002
          47  1.148604523095526E-002
          48 -1.514218816609499E-002
          49 -0.112989008761295     
          50  0.101121051152373     
          51 -5.014477328625931E-002
          52 -2.273467677572359E-002
          53  3.448178947686717E-002
          54  3.861375804400031E-002
          55  3.980501542054885E-002
          56  2.346919222527872E-002
          57  1.643457514475401E-002
          58  4.009668270037008E-002
          59  7.140597060929950E-002
          60 -6.927768877040152E-002
          61  1.616518664201729E-002
          62  0.128932786260466     
          63  7.881812460968543E-002
          64 -1.838431883853386E-003
          65 -5.158418434747480E-003
          66 -2.665658200886932E-003
          67 -2.923323674632656E-003
          68 -1.061993683539861E-002
          69 -8.005816743619762E-003
          70 -2.377869813003235E-003
          71 -3.389345619912959E-003