49
 energy: -55.601967503515 gnorm: 0.000298676375 xtb: 6.7.1 (edcfbbe)
C            3.52834800624332        0.83099542933875       -1.39779072314962
C            3.70448909378461       -0.18707617042315       -0.26828255464336
C            4.76345985828620       -1.21543237236122       -0.68404211269375
C            4.18314639637662        0.53493461345707        0.99431988631546
C            2.39246680566974       -0.95082751614442        0.04917875975329
N            1.77436494227398       -1.65418444372911       -1.08058123054084
C            1.26266908540777       -0.06149387141911        0.62243409922148
N            0.03843341543927       -0.88789368367111        0.55372307097643
C           -1.30769691374899       -0.23896821552871        0.36822655537017
C           -1.38846029853145        0.41843216734869       -1.00557045602190
C           -2.79002415492167        1.01791994546133       -1.18058986195693
C           -3.83801621581025       -0.08872890227160       -1.08665025675171
C           -3.74654659030662       -0.75567347718766        0.28398906944266
C           -2.34791601506317       -1.35566818121132        0.46256259609525
C           -3.99682861607261        0.27714314464710        1.38126908617020
C           -2.95067034410690        1.38570334636049        1.28272148277733
C           -1.54985011541227        0.78999716563769        1.46873744798384
C           -3.03771240686625        2.05637025791852       -0.08729195116667
H            3.23791034783509        0.35737772744104       -2.33358870592431
H            4.47634665348853        1.33118328481820       -1.57332715125151
H            2.79755275293773        1.59595714054806       -1.14739429742638
H            4.91566516440071       -1.95393475787817        0.09990442192880
H            4.48178980234207       -1.73132022814460       -1.59956317202281
H            5.71165600491513       -0.71834097027679       -0.86517032228887
H            5.17924613776434        0.93527480567093        0.82974432608853
H            4.23324439931380       -0.14778629751022        1.83910252655143
H            3.53105760360581        1.36579261037749        1.24990166326702
H            2.63304277130353       -1.71135326546626        0.80206087203453
H            2.24493445531205       -2.52695523544436       -1.28323233738400
H            1.80489412419938       -1.08176504706379       -1.91885398309771
H            1.12616779271904        0.81457505586866       -0.00908078163869
H            1.47539504648405        0.25613462398126        1.64027522426789
H            0.32356896094867       -1.49579119236685       -0.29758614250318
H           -0.01699081037434       -1.49458004230952        1.37514116587421
H           -1.20299191776035       -0.32148670595857       -1.78743116540033
H           -0.65213080061537        1.21747106265300       -1.10376130376047
H           -2.84897323104554        1.49671275293523       -2.16165941449301
H           -3.67971457363309       -0.82626456774559       -1.87571281226448
H           -4.83252242371785        0.33485560691798       -1.22397693164833
H           -4.48789654659296       -1.55572840429099        0.35504185793286
H           -2.16828972307735       -2.10451322228757       -0.31237025042239
H           -2.28840370997612       -1.84765260771330        1.43682190177764
H           -3.95061178829799       -0.19789260604934        2.36308676958990
H           -4.99378739787788        0.70160647933554        1.26625314395454
H           -3.12631137818031        2.12704585310647        2.06655982075271
H           -0.80860370940128        1.58918040082839        1.41790377202311
H           -1.47892329166005        0.31767285371353        2.45126238146432
H           -4.02572077938745        2.49701592339260       -0.21772563811607
H           -2.30425586861843        2.86195973269709       -0.15898834504736
