[Molden Format]
[Title]
[Atoms] AU
C      1     6 -0.55061862819669E+01  0.87740554981892E-01 -0.21114036943270E+01
C      2     6 -0.42664318227530E+01 -0.60435382967189E+00  0.40935235622374E+00
C      3     6 -0.54431529396493E+01 -0.30572576695492E+01  0.14038511500431E+01
C      4     6 -0.47202306112875E+01  0.15137757412734E+01  0.23278474188255E+01
C      5     6 -0.14218448146671E+01 -0.10743758789901E+01 -0.53117145096944E-01
N      6     7  0.10382263295899E-02 -0.14795330016802E+01  0.23461969938150E+01
C      7     6  0.36196506600162E-01  0.10839795521235E+01 -0.13927613305434E+01
N      8     7  0.27010850529927E+01  0.75339104094191E+00 -0.78952401075939E+00
C      9     6  0.42513891699961E+01  0.30425670904647E+01 -0.58520103286462E+00
C     10     6  0.69645128720628E+01  0.20388284767259E+01 -0.36812949855482E+00
C     11     6  0.67906413171987E+01 -0.69198567015279E+00 -0.13247820117691E+01
F     12     9  0.86150926171121E+01 -0.13186394739630E+01 -0.29724700082417E+01
F     13     9  0.70085909532172E+01 -0.23545094253725E+01  0.64713044243624E+00
C     14     6  0.41300171784729E+01 -0.92931749049529E+00 -0.24394066158709E+01
H     15     1 -0.49027850588515E+01  0.19388951802259E+01 -0.27582703309960E+01
H     16     1 -0.50565158297433E+01 -0.12996106534901E+01 -0.35568363910353E+01
H     17     1 -0.75455823124715E+01  0.13101519724362E+00 -0.18927972743165E+01
H     18     1 -0.74597383500620E+01 -0.27962274646147E+01  0.16782588750492E+01
H     19     1 -0.51915349271689E+01 -0.45911242777483E+01  0.61196859156837E-01
H     20     1 -0.46439418939712E+01 -0.36218335336749E+01  0.32117196943667E+01
H     21     1 -0.37545570198716E+01  0.32511116451589E+01  0.18116158458630E+01
H     22     1 -0.67291404873080E+01  0.19321705732339E+01  0.23871901456680E+01
H     23     1 -0.41788697460169E+01  0.97883318235175E+00  0.42414458868356E+01
H     24     1 -0.12302492005447E+01 -0.27906751205176E+01 -0.11881205630688E+01
H     25     1 -0.75439430071432E+00 -0.39359032713149E+00  0.37603402651224E+01
H     26     1  0.87892997552240E-01 -0.33189046725012E+01  0.29126821782785E+01
H     27     1 -0.33012017909643E+00  0.10450508353587E+01 -0.34244588392031E+01
H     28     1 -0.56602380189125E+00  0.29138966798699E+01 -0.66001145525899E+00
H     29     1  0.18345584873393E+01 -0.73270171790924E+00  0.17394715526746E+01
H     30     1  0.36820454414119E+01  0.41348854351092E+01  0.10665250313138E+01
H     31     1  0.40486054180497E+01  0.42306857911482E+01 -0.22701238805750E+01
H     32     1  0.82878787877857E+01  0.30993972284292E+01 -0.15293188395111E+01
H     33     1  0.76523584497423E+01  0.20411563166776E+01  0.15712562853594E+01
H     34     1  0.41610999245697E+01 -0.29139781062853E+00 -0.44123490379765E+01
H     35     1  0.34482961776055E+01 -0.28713425032245E+01 -0.23584153926054E+01
[GTO]
           1 0
 s           4   1.00000000000000     
   51.0493630955799      -0.163120632101274     
   8.79112274068875      -0.199110245810007     
  0.706404222589298       0.318820477536558     
  0.269228134134116       0.127065041842404     
 p           4   1.00000000000000     
   5.82636561408000       0.737164515452096     
   1.51068960187200       0.682163716148503     
  0.532564832880000       0.357830539292537     
  0.212023236906000       5.398303027584788E-002
 
           2 0
 s           4   1.00000000000000     
   51.0493630955799      -0.163120632101274     
   8.79112274068875      -0.199110245810007     
  0.706404222589298       0.318820477536558     
  0.269228134134116       0.127065041842404     
 p           4   1.00000000000000     
   5.82636561408000       0.737164515452096     
   1.51068960187200       0.682163716148503     
  0.532564832880000       0.357830539292537     
  0.212023236906000       5.398303027584788E-002
 
           3 0
 s           4   1.00000000000000     
   51.0493630955799      -0.163120632101274     
   8.79112274068875      -0.199110245810007     
  0.706404222589298       0.318820477536558     
  0.269228134134116       0.127065041842404     
 p           4   1.00000000000000     
   5.82636561408000       0.737164515452096     
   1.51068960187200       0.682163716148503     
  0.532564832880000       0.357830539292537     
  0.212023236906000       5.398303027584788E-002
 
           4 0
 s           4   1.00000000000000     
   51.0493630955799      -0.163120632101274     
   8.79112274068875      -0.199110245810007     
  0.706404222589298       0.318820477536558     
  0.269228134134116       0.127065041842404     
 p           4   1.00000000000000     
   5.82636561408000       0.737164515452096     
   1.51068960187200       0.682163716148503     
  0.532564832880000       0.357830539292537     
  0.212023236906000       5.398303027584788E-002
 
           5 0
 s           4   1.00000000000000     
   51.0493630955799      -0.163120632101274     
   8.79112274068875      -0.199110245810007     
  0.706404222589298       0.318820477536558     
  0.269228134134116       0.127065041842404     
 p           4   1.00000000000000     
   5.82636561408000       0.737164515452096     
   1.51068960187200       0.682163716148503     
  0.532564832880000       0.357830539292537     
  0.212023236906000       5.398303027584788E-002
 
           6 0
 s           4   1.00000000000000     
   63.5940244669410      -0.192343884147216     
   10.9514172315237      -0.234781079249537     
  0.879993102573770       0.375937539017009     
  0.335387152965211       0.149828892718628     
 p           4   1.00000000000000     
   7.29650404814951       0.976586663156674     
   1.89187454507126       0.903722267303458     
  0.666944321108241       0.474049584615364     
  0.265522026741309       7.151606771501186E-002
 
           7 0
 s           4   1.00000000000000     
   51.0493630955799      -0.163120632101274     
   8.79112274068875      -0.199110245810007     
  0.706404222589298       0.318820477536558     
  0.269228134134116       0.127065041842404     
 p           4   1.00000000000000     
   5.82636561408000       0.737164515452096     
   1.51068960187200       0.682163716148503     
  0.532564832880000       0.357830539292537     
  0.212023236906000       5.398303027584788E-002
 
           8 0
 s           4   1.00000000000000     
   63.5940244669410      -0.192343884147216     
   10.9514172315237      -0.234781079249537     
  0.879993102573770       0.375937539017009     
  0.335387152965211       0.149828892718628     
 p           4   1.00000000000000     
   7.29650404814951       0.976586663156674     
   1.89187454507126       0.903722267303458     
  0.666944321108241       0.474049584615364     
  0.265522026741309       7.151606771501186E-002
 
           9 0
 s           4   1.00000000000000     
   51.0493630955799      -0.163120632101274     
   8.79112274068875      -0.199110245810007     
  0.706404222589298       0.318820477536558     
  0.269228134134116       0.127065041842404     
 p           4   1.00000000000000     
   5.82636561408000       0.737164515452096     
   1.51068960187200       0.682163716148503     
  0.532564832880000       0.357830539292537     
  0.212023236906000       5.398303027584788E-002
 
          10 0
 s           4   1.00000000000000     
   51.0493630955799      -0.163120632101274     
   8.79112274068875      -0.199110245810007     
  0.706404222589298       0.318820477536558     
  0.269228134134116       0.127065041842404     
 p           4   1.00000000000000     
   5.82636561408000       0.737164515452096     
   1.51068960187200       0.682163716148503     
  0.532564832880000       0.357830539292537     
  0.212023236906000       5.398303027584788E-002
 
          11 0
 s           4   1.00000000000000     
   51.0493630955799      -0.163120632101274     
   8.79112274068875      -0.199110245810007     
  0.706404222589298       0.318820477536558     
  0.269228134134116       0.127065041842404     
 p           4   1.00000000000000     
   5.82636561408000       0.737164515452096     
   1.51068960187200       0.682163716148503     
  0.532564832880000       0.357830539292537     
  0.212023236906000       5.398303027584788E-002
 
          12 0
 s           4   1.00000000000000     
   67.8191594740697      -0.201850789245403     
   11.6790204412661      -0.246385510808000     
  0.938459125048083       0.394518855091218     
  0.357670001280168       0.157234426148285     
 p           4   1.00000000000000     
   9.58240403549692        1.37296780219284     
   2.48457427772447        1.27052889614703     
  0.875889317934415       0.666458841672068     
  0.348706630431394       0.100543312761176     
 
          13 0
 s           4   1.00000000000000     
   67.8191594740697      -0.201850789245403     
   11.6790204412661      -0.246385510808000     
  0.938459125048083       0.394518855091218     
  0.357670001280168       0.157234426148285     
 p           4   1.00000000000000     
   9.58240403549692        1.37296780219284     
   2.48457427772447        1.27052889614703     
  0.875889317934415       0.666458841672068     
  0.348706630431394       0.100543312761176     
 
          14 0
 s           4   1.00000000000000     
   51.0493630955799      -0.163120632101274     
   8.79112274068875      -0.199110245810007     
  0.706404222589298       0.318820477536558     
  0.269228134134116       0.127065041842404     
 p           4   1.00000000000000     
   5.82636561408000       0.737164515452096     
   1.51068960187200       0.682163716148503     
  0.532564832880000       0.357830539292537     
  0.212023236906000       5.398303027584788E-002
 
          15 0
 s           3   1.00000000000000     
   3.37022769753360       0.273591105889083     
  0.613891182214980       0.264605406538605     
  0.166142911484160       8.246594753408230E-002
 
          16 0
 s           3   1.00000000000000     
   3.37022769753360       0.273591105889083     
  0.613891182214980       0.264605406538605     
  0.166142911484160       8.246594753408230E-002
 
          17 0
 s           3   1.00000000000000     
   3.37022769753360       0.273591105889083     
  0.613891182214980       0.264605406538605     
  0.166142911484160       8.246594753408230E-002
 
          18 0
 s           3   1.00000000000000     
   3.37022769753360       0.273591105889083     
  0.613891182214980       0.264605406538605     
  0.166142911484160       8.246594753408230E-002
 
          19 0
 s           3   1.00000000000000     
   3.37022769753360       0.273591105889083     
  0.613891182214980       0.264605406538605     
  0.166142911484160       8.246594753408230E-002
 
          20 0
 s           3   1.00000000000000     
   3.37022769753360       0.273591105889083     
  0.613891182214980       0.264605406538605     
  0.166142911484160       8.246594753408230E-002
 
          21 0
 s           3   1.00000000000000     
   3.37022769753360       0.273591105889083     
  0.613891182214980       0.264605406538605     
  0.166142911484160       8.246594753408230E-002
 
          22 0
 s           3   1.00000000000000     
   3.37022769753360       0.273591105889083     
  0.613891182214980       0.264605406538605     
  0.166142911484160       8.246594753408230E-002
 
          23 0
 s           3   1.00000000000000     
   3.37022769753360       0.273591105889083     
  0.613891182214980       0.264605406538605     
  0.166142911484160       8.246594753408230E-002
 
          24 0
 s           3   1.00000000000000     
   3.37022769753360       0.273591105889083     
  0.613891182214980       0.264605406538605     
  0.166142911484160       8.246594753408230E-002
 
          25 0
 s           3   1.00000000000000     
   3.37022769753360       0.273591105889083     
  0.613891182214980       0.264605406538605     
  0.166142911484160       8.246594753408230E-002
 
          26 0
 s           3   1.00000000000000     
   3.37022769753360       0.273591105889083     
  0.613891182214980       0.264605406538605     
  0.166142911484160       8.246594753408230E-002
 
          27 0
 s           3   1.00000000000000     
   3.37022769753360       0.273591105889083     
  0.613891182214980       0.264605406538605     
  0.166142911484160       8.246594753408230E-002
 
          28 0
 s           3   1.00000000000000     
   3.37022769753360       0.273591105889083     
  0.613891182214980       0.264605406538605     
  0.166142911484160       8.246594753408230E-002
 
          29 0
 s           3   1.00000000000000     
   3.37022769753360       0.273591105889083     
  0.613891182214980       0.264605406538605     
  0.166142911484160       8.246594753408230E-002
 
          30 0
 s           3   1.00000000000000     
   3.37022769753360       0.273591105889083     
  0.613891182214980       0.264605406538605     
  0.166142911484160       8.246594753408230E-002
 
          31 0
 s           3   1.00000000000000     
   3.37022769753360       0.273591105889083     
  0.613891182214980       0.264605406538605     
  0.166142911484160       8.246594753408230E-002
 
          32 0
 s           3   1.00000000000000     
   3.37022769753360       0.273591105889083     
  0.613891182214980       0.264605406538605     
  0.166142911484160       8.246594753408230E-002
 
          33 0
 s           3   1.00000000000000     
   3.37022769753360       0.273591105889083     
  0.613891182214980       0.264605406538605     
  0.166142911484160       8.246594753408230E-002
 
          34 0
 s           3   1.00000000000000     
   3.37022769753360       0.273591105889083     
  0.613891182214980       0.264605406538605     
  0.166142911484160       8.246594753408230E-002
 
          35 0
 s           3   1.00000000000000     
   3.37022769753360       0.273591105889083     
  0.613891182214980       0.264605406538605     
  0.166142911484160       8.246594753408230E-002
 
[MO]
Sym=     1a
Ene=  -0.955258552355050     
Spin= Alpha
Occup=     2.00000000
           1 -1.309316179530885E-006
           2 -3.228431530521355E-006
           3  1.260472592398357E-007
           4 -1.064101158743372E-006
           5 -1.298586521874138E-005
           6 -1.869224985846406E-005
           7 -9.725891305389232E-007
           8  2.281960325318681E-006
           9 -5.597633904744827E-007
          10 -1.805115773689290E-006
          11 -1.208170570338770E-006
          12  4.434027734502791E-007
          13 -1.873019109341215E-006
          14 -2.883034804585390E-006
          15  1.659231897093629E-006
          16  1.676201761803622E-006
          17 -1.805097346694510E-004
          18 -7.958472982168456E-005
          19 -8.654175747941914E-005
          20  3.702729705102033E-005
          21  4.614544703094426E-005
          22  2.052804487134415E-004
          23 -3.233690955799810E-005
          24  4.000885168769776E-005
          25 -9.015916783174426E-004
          26 -2.836843115137697E-004
          27 -1.854731069278474E-005
          28 -1.130810596019223E-004
          29  2.525525538686749E-004
          30  4.297616716575509E-003
          31 -2.603506114757777E-003
          32  6.217412824696714E-004
          33  2.124835102185008E-005
          34  1.644981800434026E-003
          35 -2.117446590799913E-003
          36  5.079325423241913E-005
          37  1.529858451247256E-002
          38  2.583974513304525E-003
          39 -2.602667640872504E-002
          40 -3.429770117782484E-003
          41  0.232856803740886     
          42  8.519083728953630E-002
          43 -0.128785397417797     
          44  5.088520796157839E-002
          45  0.474128869921761     
          46  1.272073592211219E-003
          47 -3.554607232070892E-003
          48 -1.066468449629141E-003
          49  0.693674202785174     
          50 -1.441401223872793E-002
          51 -1.001203231361427E-002
          52  1.890564543809712E-002
          53  1.928348525129497E-002
          54  2.676662200467519E-002
          55 -6.230449793913562E-003
          56  1.381300204704156E-002
          57 -1.630262342457207E-006
          58 -7.157417830605908E-007
          59 -2.851274082226035E-007
          60 -3.280835022909098E-007
          61 -6.379310905176054E-007
          62 -9.919215013619947E-007
          63 -2.143902188795123E-006
          64 -1.106843683708081E-007
          65 -5.367924558872934E-007
          66  5.878540601461780E-006
          67 -1.590310650559516E-005
          68  1.728165730681923E-005
          69  1.019635688945136E-004
          70  1.526532514186063E-007
          71  1.083021538862026E-003
          72  2.033537169226766E-004
          73  2.997047617812908E-004
          74  2.940259985866085E-004
          75  3.312369885746661E-005
          76  7.467950393202284E-004
          77  2.373686447314947E-004
Sym=     2a
Ene=  -0.946086583611027     
Spin= Alpha
Occup=     2.00000000
           1  1.326180450530341E-006
           2  3.707544609685812E-007
           3 -1.060596127600766E-008
           4  3.887004541820545E-007
           5  8.371060173512393E-006
           6  3.027431173485768E-006
           7  6.096279575609399E-007
           8  1.305459424612380E-006
           9  1.387160355628129E-006
          10  1.088591808201586E-006
          11  6.672944956589031E-007
          12  1.980493675163913E-007
          13  1.940519709863532E-006
          14  1.417382790772087E-006
          15 -1.081801408468430E-006
          16 -3.879879401617178E-007
          17 -5.395140288639182E-005
          18 -9.702460444422716E-005
          19  3.680991667518910E-005
          20 -1.197358351890191E-005
          21 -2.073778995022010E-004
          22 -3.436502201872570E-004
          23 -4.619899887616713E-005
          24  1.877906843719819E-004
          25  1.436684356949819E-004
          26 -9.893858853511480E-005
          27  1.909203368697555E-004
          28 -2.465765573175653E-008
          29 -3.981860799336756E-003
          30 -4.328771557931635E-003
          31  3.250616873707886E-003
          32 -9.375631165114225E-004
          33 -1.741128092182704E-003
          34 -8.065980565439475E-005
          35  1.391811911271912E-003
          36 -7.541840325587968E-004
          37  5.623897066869299E-004
          38  6.420319069510273E-003
          39  5.603193332089789E-004
          40 -1.238163864334130E-002
          41  4.460700571828170E-002
          42  0.121242693008736     
          43  3.738023602959515E-002
          44 -0.216576791851986     
          45  0.712171513966226     
          46  8.701998702631678E-003
          47  5.082745895452008E-003
          48 -2.424091734247425E-002
          49 -0.514238699135411     
          50  2.055887099146781E-002
          51  8.645548309861988E-003
          52 -2.940767297398720E-002
          53 -7.343790076266945E-004
          54  9.654804791550635E-003
          55  2.748594177250530E-003
          56 -1.444143109761385E-002
          57 -1.926534704376183E-006
          58 -9.823055483391366E-007
          59 -1.482194098165264E-007
          60 -1.803199296131159E-007
          61 -2.933575827725691E-007
          62  1.376940567943135E-006
          63 -1.464747453371693E-007
          64 -2.656644719224128E-007
          65  9.240822084755998E-007
          66  2.188831965376898E-005
          67  9.267658370199959E-006
          68 -3.012504795971510E-005
          69  6.699386618886464E-005
          70  7.596420523302474E-005
          71 -9.890640215509225E-004
          72  3.210856193615338E-004
          73 -9.329268896130640E-005
          74 -3.591025885450586E-004
          75 -6.234937686558953E-004
          76 -1.614989087916021E-004
          77 -1.246509581144415E-003
Sym=     3a
Ene=  -0.861246033550576     
Spin= Alpha
Occup=     2.00000000
           1  4.326297664878707E-003
           2  6.826824789162673E-003
           3 -1.766030927889431E-003
           4  5.839875043039652E-003
           5  6.691342147391956E-002
           6  5.899994048431625E-002
           7 -7.941427834602853E-003
           8  9.019607080400217E-003
           9  1.274330059812580E-002
          10  1.326277458648044E-002
          11  8.351607671984085E-003
          12 -2.133065661624745E-003
          13  1.681778085875044E-002
          14  1.312122614866437E-002
          15 -1.135028285311274E-002
          16 -6.225246293909178E-003
          17  0.329086229768556     
          18  9.399199512362016E-002
          19  1.384659295481322E-003
          20  0.128641494998049     
          21  0.517527322616124     
          22 -7.799888223075725E-002
          23  4.182761980541003E-002
          24 -0.151004041028612     
          25  0.133518348671256     
          26 -5.089369743206709E-004
          27 -6.121765490262793E-002
          28  6.511324964646331E-002
          29  7.521699627412370E-002
          30 -6.733235943875530E-002
          31 -2.393204610574962E-002
          32  1.766973484215746E-002
          33 -5.878911588860624E-004
          34 -8.727107264161886E-003
          35 -3.203420982989153E-003
          36  2.228162465075115E-003
          37 -3.807397323269085E-003
          38  1.460155788126918E-003
          39  1.276884238254405E-004
          40  6.692584847837430E-004
          41 -2.040292695703535E-003
          42 -8.155071327730762E-005
          43 -1.713461388604410E-003
          44 -7.060158621740137E-004
          45  4.017576274224078E-003
          46  7.325326352225222E-004
          47 -3.715829459817994E-004
          48 -5.056526119624287E-004
          49 -1.778412526944772E-003
          50 -3.071564020432337E-004
          51 -3.048687088369116E-004
          52  5.408132164311970E-005
          53  1.183928631933361E-002
          54 -1.563098147399151E-002
          55  1.119991112355773E-003
          56  8.733368031426780E-003
          57  8.826537952285068E-004
          58  7.098243457196623E-004
          59  2.228170054708878E-004
          60  2.890602026371051E-004
          61  1.746148372483245E-003
          62  5.992316073015922E-003
          63  3.911025214270382E-003
          64  3.813681147191132E-004
          65  8.256154875878481E-003
          66  6.514559857508480E-002
          67  0.122851918525192     
          68  0.115405186536753     
          69  1.490378107521956E-002
          70  2.360315170783900E-002
          71  0.133065989417605     
          72  7.321878111539176E-004
          73 -8.555901416049354E-004
          74 -4.375740724505451E-004
          75 -5.067023502966061E-004
          76  6.491069894882054E-004
          77  6.210320715514231E-003
Sym=     4a
Ene=  -0.829358675606709     
Spin= Alpha
Occup=     2.00000000
           1  1.603252696177121E-003
           2  5.331088142900062E-004
           3 -7.543909378295172E-004
           4  1.990945213226825E-003
           5  1.846963340727435E-002
           6  5.855538123099292E-003
           7 -4.418973466782107E-003
           8  6.098651254566045E-003
           9  7.757458535648396E-003
          10  4.734171156392830E-003
          11  3.610944722816850E-003
          12 -4.879162016689032E-004
          13  6.717388077131567E-003
          14  2.773980976862947E-003
          15 -4.237340769258842E-003
          16 -9.976332079516047E-004
          17 -2.704130839479474E-003
          18 -2.954304281248456E-002
          19 -2.694997411146963E-002
          20  4.243330363410534E-002
          21  0.104286911481281     
          22 -4.164042288102136E-002
          23 -2.617153335211833E-002
          24  3.854501199127403E-002
          25 -0.144460172240332     
          26 -9.016187796812865E-002
          27  1.675659417140291E-002
          28 -8.469493376776091E-003
          29 -0.412059558306420     
          30 -8.002339144979875E-002
          31  1.678209723656975E-003
          32  8.496174913088698E-002
          33 -0.217513525888438     
          34  2.194230571504657E-002
          35  0.121368189703620     
          36  2.331942455188059E-002
          37 -0.145965971329895     
          38  7.774631876684970E-002
          39  4.322453044582426E-002
          40  2.841318845991736E-002
          41 -0.189215675029216     
          42  0.135099893254038     
          43 -8.560921145484789E-002
          44  2.002288441037806E-002
          45  3.091548334770886E-002
          46  3.440669727970883E-002
          47 -2.008838922086015E-002
          48 -4.570997514839466E-003
          49  7.759425392681059E-002
          50  2.962694735117228E-002
          51 -3.860430454903693E-002
          52  3.005277009639025E-002
          53 -0.305631084827245     
          54  1.324002308931082E-002
          55 -0.103545727665340     
          56 -9.823379299502122E-002
          57 -7.172263847378945E-005
          58  1.041180906028324E-004
          59  2.489588461096348E-004
          60  5.400037656880000E-004
          61  1.241194220405307E-003
          62  3.931673381302928E-003
          63  3.974198071685938E-004
          64  5.390250713584371E-004
          65  4.262822254123433E-003
          66 -3.336987549436546E-003
          67  4.460572735566391E-002
          68  4.689365742066524E-002
          69 -3.172839929542569E-002
          70 -2.674745671894453E-002
          71 -2.039460457611010E-002
          72 -3.151874917697477E-002
          73 -3.941508883322146E-002
          74 -1.972218279721687E-002
          75 -1.983691562063563E-002
          76 -6.090580183774995E-002
          77 -5.404078852080557E-002
Sym=     5a
Ene=  -0.820503282676265     
Spin= Alpha
Occup=     2.00000000
           1 -2.824289843027615E-002
           2 -1.967725899805204E-002
           3  4.187957877856118E-003
           4 -1.475240313474773E-002
           5 -9.095307058793241E-002
           6 -5.092727864089630E-002
           7 -5.140767840448383E-003
           8  2.274245388810493E-002
           9 -1.080039799532600E-002
          10 -7.644223456332551E-003
          11 -1.025648398823873E-002
          12  7.971981307496420E-003
          13 -1.694147935028237E-002
          14 -7.655779239429889E-003
          15  8.734143999912871E-003
          16  1.633994198328874E-002
          17 -0.259221270617121     
          18 -2.849437538583725E-002
          19 -8.864868769416863E-002
          20  8.623619017113604E-002
          21  0.329824208290892     
          22  3.121055338583394E-002
          23 -0.100808189240892     
          24  0.235789202777368     
          25 -0.319387354301768     
          26 -6.485874950050892E-003
          27  7.018521171892929E-002
          28 -5.965937522130635E-002
          29 -7.886464071384501E-002
          30  0.207669507651793     
          31  1.666287633553555E-003
          32  3.739872965999071E-003
          33  7.677749903772678E-002
          34  4.323218723277140E-002
          35 -3.594264265663363E-002
          36 -2.310274274797950E-003
          37  9.993873189104170E-002
          38 -4.088782407698616E-002
          39 -2.579819925661409E-002
          40 -1.557088918188239E-002
          41  0.113920961853313     
          42 -6.743238808298181E-002
          43  5.535783134053403E-002
          44 -6.251041029657420E-003
          45 -3.061360093092063E-002
          46 -2.426236066120313E-002
          47  1.487365900313626E-002
          48  6.770376773549519E-003
          49 -4.870104602355268E-002
          50 -1.681775649800622E-002
          51  2.722089771846295E-002
          52 -1.962780342927656E-002
          53  8.989046617653756E-002
          54  5.980330162607365E-002
          55  2.452562214062325E-002
          56  2.788460626119436E-002
          57 -7.847653793038237E-003
          58 -6.984075638861511E-003
          59 -2.028380114695698E-003
          60 -1.287654646922199E-003
          61 -3.460966496912289E-003
          62  4.060987268299135E-003
          63 -8.549610473634109E-003
          64 -1.947432993099233E-003
          65  5.471969143059379E-003
          66 -7.020406482887491E-002
          67  0.150700073713416     
          68  0.180728752372931     
          69 -7.150739210297148E-002
          70 -7.912666131481477E-002
          71  4.886899489057984E-002
          72  8.860886183995860E-003
          73  1.226465130739113E-002
          74  1.571932947710555E-002
          75  1.608412804645448E-002
          76  1.760088364667119E-002
          77  8.037813091994346E-003
Sym=     6a
Ene=  -0.804503603932553     
Spin= Alpha
Occup=     2.00000000
           1 -7.614104126058903E-002
           2 -3.660246734049207E-002
           3  1.710764543906833E-002
           4 -4.830162717032177E-002
           5 -0.297087928671015     
           6 -8.399305696481613E-002
           7  2.621170553008508E-002
           8 -2.822498289160452E-003
           9 -9.833305622945347E-002
          10 -4.698388135905746E-002
          11 -5.223582950719662E-002
          12  2.150742545971720E-002
          13 -8.903600591469439E-002
          14 -2.431107824165259E-002
          15  4.988849004256973E-002
          16  3.893276305506693E-002
          17 -0.277742344275589     
          18  0.158867523834507     
          19  4.512692871186866E-002
          20 -5.722139714092998E-002
          21  0.115337764840675     
          22  0.232955983305415     
          23  2.340210423537405E-002
          24  0.118500908160565     
          25  0.174059238339861     
          26  0.142379735362971     
          27  2.492911817728383E-002
          28  1.467084451660827E-002
          29  0.193641169096511     
          30 -0.184469810386031     
          31  2.504316220668961E-002
          32  1.210510495830462E-002
          33 -2.477300384392315E-002
          34 -7.946018334372887E-002
          35  1.010194280791822E-002
          36  3.572265356210757E-003