36
 energy: -42.664634326171 gnorm: 0.000675908889 xtb: 6.7.1 (edcfbbe)
C           -3.15266952723932       -0.08204298529798       -1.44763205107061
C           -2.37098025921139        0.07428666293131       -0.13757990367045
C           -2.70030227422842       -1.10419456758740        0.78209466139640
C           -2.79190923838417        1.38086985054065        0.54066339624045
C           -0.86168537003089        0.15156469339215       -0.48680691594764
N           -0.29153459342934       -1.04494158313621       -1.11807338666270
C            0.05325622217506        0.43133553271718        0.73253789562566
N            1.42545634933880        0.07635046827527        0.31082180274606
C            2.25958208892879       -0.56213317571039        1.34666901781400
C            3.57983405105350       -1.01800243620219        0.71352703757103
O            4.25832842698688        0.06427282358153        0.13465623248202
C            3.49084019248215        0.67364876636587       -0.86893574855123
C            2.16905128922613        1.19836636584067       -0.29760208069213
H           -4.21902775252452       -0.08514748577815       -1.24360905261027
H           -2.94360845550403        0.74226181100006       -2.12589648526776
H           -2.91112897417830       -1.01690609966588       -1.94893154063748
H           -3.76947736079002       -1.11356016449801        0.97317316229584
H           -2.44792510346175       -2.06135083848423        0.32947914826708
H           -2.19978288071014       -1.02574817152087        1.74412441657373
H           -2.36288498161086        1.47029563923891        1.53493307309811
H           -2.49257976684064        2.24226178457968       -0.05144307868156
H           -3.87267022593912        1.40672102552927        0.64345523624077
H           -0.73862956269635        0.97517043378729       -1.19938815624667
H           -0.49722106778229       -1.08362342893396       -2.10806707928111
H           -0.66205383445034       -1.88896807455190       -0.69116501597732
H           -0.00221817146533        1.47032103346121        1.05075029572849
H           -0.22980467543428       -0.21218870636506        1.56549852661584
H            1.14597986457274       -0.63974985579791       -0.46490406629889
H            1.73171654277079       -1.41821300126026        1.76745998662145
H            2.46204000438066        0.16537951526809        2.13681411980036
H            3.37930841816833       -1.79533075079025       -0.04030045560816
H            4.24265734013809       -1.42614989591406        1.47713641361983
H            4.08838328915816        1.49905554079501       -1.25719586062704
H            3.28698831924120       -0.03706698429960       -1.68486056120537
H            1.56933408159757        1.65015887637540       -1.08686555297195
H            2.37533759569155        1.94299738211381        0.47546256927028
