48
 energy: -59.888444546866 gnorm: 0.000263221801 xtb: 6.7.1 (edcfbbe)
C            4.06523578067291        0.04493384969195        1.01673982041492
C            3.29248099110902        0.23185476839115       -0.29174712046385
C            4.22052387241503       -0.09517026402924       -1.46772945783578
C            2.83385358549574        1.68844348128263       -0.41139024555824
C            2.10241667823781       -0.76127302123340       -0.32404536423703
N            1.20245481292145       -0.62311320819846       -1.47408730030461
C            1.18445319670039       -0.66806593824985        0.92273215363184
N           -0.11246494849595       -1.25607156256134        0.53244446888982
C           -1.33017860833908       -0.55453031926420        1.03132467995453
C           -2.58659474810483       -1.30260111439961        0.64412336492719
C           -2.65720877642603       -2.12511416497908       -0.47397882020273
C           -3.84528871544053       -2.76108639942531       -0.79540409565186
C           -4.97120180494442       -2.57754738512172       -0.01273605427786
C           -4.90816279989012       -1.75291173008810        1.09813549918281
C           -3.72258717193381       -1.12106083687588        1.42475596789991
C           -1.33736685580965        0.85631573305026        0.48278724839852
C           -1.11167397679924        1.93781604373677        1.32510084754355
C           -1.08451349410172        3.22568462538132        0.81699453757222
C           -1.28015662253466        3.44099333110913       -0.53644591797817
C           -1.51601922840699        2.36675269701339       -1.37939375453511
C           -1.54614152368205        1.07930440106775       -0.87393044080614
H            4.31729335479663       -1.00110142902913        1.17360880306158
H            3.49604309805700        0.40224407902208        1.87042309821811
H            4.99274998310246        0.60869331156401        0.97686126642012
H            5.07758488681626        0.57143457677786       -1.45988349111646
H            4.58812580780437       -1.11638245099180       -1.39875506501465
H            3.71444865327044        0.02936288376086       -2.42273411684213
H            2.38090935844682        1.89495005157039       -1.37926710610755
H            3.69876149084856        2.33871377958878       -0.31779773166946
H            2.12840992958098        1.96651673808050        0.36809542715016
H            2.51777346602342       -1.77496223221459       -0.36391749791554
H            1.03979194014070        0.35648219837094       -1.68867998314990
H            1.57142810537433       -1.07424336454430       -2.30133612035908
H            1.61776548094906       -1.18014508181812        1.77890102353654
H            1.01469470490366        0.37843842658766        1.17665044388547
H            0.00560502532309       -1.13304744058268       -0.55177415394141
H           -0.17279613710658       -2.24864644661877        0.76520649852195
H           -1.26699282688917       -0.51277457629826        2.12522437784497
H           -1.79879076551080       -2.28637417526684       -1.11178880634068
H           -3.88735962140363       -3.40059195217057       -1.66345210650554
H           -5.89371514465328       -3.07419686250082       -0.26804049458540
H           -5.78138570884104       -1.60312156077745        1.71308320077002
H           -3.67586827405622       -0.47713647972150        2.29031068768391
H           -0.96573080228112        1.77678528238580        2.38399591140893
H           -0.91218679766648        4.05906832098249        1.47962036915687
H           -1.25911523655763        4.44394944985101       -0.93229692570488
H           -1.68405316935867        2.53269812119130       -2.43229101337205
H           -1.75525044373178        0.24983384652582       -1.53313984980375
