49
 energy: -62.046213756991 gnorm: 0.000532659904 xtb: 6.7.1 (edcfbbe)
N           -0.40552615800883       -0.44174481346246        2.02183349788416
C           -1.66224670138477       -0.56360623186783        1.28267082597231
C           -2.49006591045965       -1.81949131115357        1.59849391014961
C           -3.35257025974763       -2.24329264028303        0.40123098849582
C           -3.75296360317021       -1.03116760657081       -0.43266403054528
C           -2.52362955834841       -0.39741195215171       -1.10396488945990
C           -1.29256555763280       -0.56772671807606       -0.21394630423816
N           -0.20598913367263        0.44146369602404       -0.39640137436178
C            0.78168276363661        0.04876650122252       -1.43324723588509
C            1.55112423770200       -1.16622376621099       -0.99087373728901
C            2.41851795280021       -1.06190617154753        0.09250189451921
C            3.11458681441272       -2.17164486592433        0.53597330946406
C            2.95155207545046       -3.39278837931267       -0.09938864959450
C            2.09525185017890       -3.50077764622527       -1.18158248619361
C            1.39329516938632       -2.39176395421589       -1.62432258873949
C           -0.62725489747699        1.85606179214982       -0.55208867617100
C            0.51709805727400        2.77043458499319       -0.19486027435621
C            1.10486710885431        3.58767627166556       -1.15103184797727
C            2.16107155609669        4.41478280573261       -0.80662995634239
C            2.64047511908526        4.42390456739302        0.49189024846100
C            2.05923511432965        3.60874265513028        1.45001209809857
C            1.00098936245072        2.78590488106411        1.10973005200605
H           -0.56768077103718       -0.14462863009271        2.97675078688582
H            0.07189974843246       -1.33849049289323        2.06550587410219
H           -2.25230135027748        0.33140563345044        1.50364134280100
H           -3.12280197214613       -1.62050687263746        2.46378881862076
H           -1.81535621228976       -2.63593300948138        1.86662483671840
H           -4.24382178831647       -2.75469243840347        0.76101535533808
H           -2.80740767957062       -2.94706962021422       -0.22935798058440
H           -4.46897864840495       -1.32454249387871       -1.19877942321241
H           -4.24649522297809       -0.30347109501605        0.21237654382205
H           -2.34441059833930       -0.87788019139318       -2.06652798241031
H           -2.73501613991004        0.65337099145108       -1.29226484757299
H           -0.82339795990039       -1.53497834047393       -0.42199487375414
H            0.24902289444743        0.36882707391127        0.55654116527433
H            1.46547612188827        0.89011231069563       -1.57378850860447
H            0.25073693597052       -0.13591642807769       -2.36953606070046
H            2.56306481797054       -0.10595060416130        0.57740222507524
H            3.79053619463282       -2.08248639194625        1.37188777845039
H            3.49828615764697       -4.25657997982496        0.24414780859473
H            1.97322728755720       -4.44765985000687       -1.68365907566045
H            0.73246899474493       -2.47846431288093       -2.47468348668858
H           -0.94431082433692        2.02792720508549       -1.58237026917007
H           -1.46826094540647        2.03931743904818        0.11959293596273
H            0.73081069777399        3.58756101564196       -2.16463198600935
H            2.60791014587112        5.05103402816117       -1.55414104245653
H            3.46233705752614        5.06886415000050        0.75973788516968
H            2.42652632311477        3.61902470833926        2.46437352100634
H            0.54100133358080        2.16361449722168        1.86501388511013
