34
 energy: -44.880284614509 gnorm: 0.000379271716 xtb: 6.7.1 (edcfbbe)
N            0.18299771520554        0.69806870014582       -1.64304345561113
C            0.67557964916381       -0.39571382914374       -0.78911091100602
C           -0.18630259582662       -0.32421553360130        0.49789629102366
N           -1.54723686448066        0.06155059250961        0.06894593149143
C           -2.41459893164352       -1.08992586979540       -0.25568213678186
C           -3.72282499985613       -0.57783987516060       -0.86797628614632
O           -4.37568661445714        0.29529238023744        0.01472533069361
C           -3.57833974628995        1.40804974345832        0.31982910761191
C           -2.26365142901049        0.97519505762105        0.98006898684745
C            2.15116267503031       -0.33730652161463       -0.46913514093805
C            2.97234093280408       -1.41702231148190       -0.76450323603662
C            4.32711679243462       -1.36166847444329       -0.48699648388910
C            4.87265406728415       -0.22531389076774        0.08486222129448
C            4.06014432243542        0.85685703761090        0.37917528089344
C            2.70574004933663        0.80149148431225        0.10474298509487
H            0.67148651492866        1.56350589879816       -1.42890743168864
H            0.34207984462916        0.50367975094372       -2.62447648653277
H            0.46260950551154       -1.33685978801439       -1.30624832449799
H            0.21026271651840        0.44771418062534        1.15925475916725
H           -0.18632208028678       -1.27318323451369        1.03216877650428
H           -1.26554339433693        0.57380005680282       -0.84810519038074
H           -2.63116705792204       -1.63493580769309        0.66663129480075
H           -1.90233017592509       -1.74906623079275       -0.95569835550137
H           -3.51411550824124       -0.07544081873952       -1.82529470964819
H           -4.40749380395918       -1.40820784590501       -1.04384184687127
H           -3.36178675929882        1.98865217059304       -0.59051105803675
H           -4.15925062584617        2.02559061578542        1.00560325540317
H           -1.64409185630943        1.84774645282926        1.18825484444445
H           -2.47584423085067        0.44863725135204        1.91390340911721
H            2.55219428078320       -2.30471903705617       -1.21438263102060
H            4.95553540277784       -2.20649448739518       -0.72074378024479
H            5.92846807537333       -0.18121441027485        0.29990306349981
H            4.48009529206660        1.74579802635992        0.82322598161094
H            2.08611883825805        1.65749856640895        0.33918665267146
