45
 energy: -54.059223868282 gnorm: 0.000454313988 xtb: 6.7.1 (edcfbbe)
C            3.67185950020810        1.66950348274911        1.09966526324544
O            2.39651057904990        1.16575571013615        1.46112144335112
C            1.31871252918046        2.04508374102703        1.25610144513446
C            0.74385828370049        1.85685286989801       -0.16370189083340
N            0.75266957946422        0.41115505784544       -0.47036945492854
C            0.86585018313832        0.06945945912075       -1.91089199155067
C            1.84297705829899       -1.09671913668289       -2.05109248853424
O            2.96835476691798       -0.77029873755190       -1.26097579701672
C            3.98854444290689       -1.74712836152946       -1.28616743482459
C           -0.31607437477522       -0.36185468111145        0.21833159169410
C           -1.74011339491326       -0.06336976546543       -0.28080166015760
N           -1.91727829831750       -0.75941063267111       -1.54968901578492
C           -2.81579741687621       -0.37544486896694        0.80896502024631
C           -2.67380668930846        0.60271398456793        1.97948354761911
C           -2.69831123094914       -1.81269522890187        1.32138115085731
C           -4.20448996038162       -0.17667454690865        0.18801327677236
H            3.87814937291403        2.61222646335896        1.61139279077960
H            4.38993016726863        0.92091775373688        1.42443634829821
H            3.76161528883545        1.81168331732296        0.01912724647074
H            1.61235253192026        3.08966098641221        1.39991792042591
H            0.56852593862266        1.79726615660287        2.01190003128318
H           -0.25806777826611        2.27508453768749       -0.23712698010537
H            1.38892373306718        2.36185229600910       -0.88417176513177
H            1.66398812628731        0.10279447779264       -0.04961676623593
H            1.26470532275806        0.92867048998694       -2.44915084846263
H           -0.12647994510852       -0.19182636758569       -2.29323142857888
H            1.39745330083932       -2.04020128794407       -1.70337254311327
H            2.12214544584843       -1.22364684315015       -3.10407320967140
H            4.37128266798751       -1.88785632705784       -2.30042328681829
H            3.62311689814143       -2.70549607708958       -0.90404409017828
H            4.78353609805117       -1.37600777713817       -0.64453371994502
H           -0.23174433720388       -0.15652219688848        1.28315980281378
H           -0.10784954793908       -1.41968669758390        0.05302759618720
H           -1.82969759299041        1.00486359122909       -0.50779707020332
H           -2.02443547014127       -1.75746777185510       -1.40009319220689
H           -2.74959246276574       -0.43282437407003       -2.02551524326838
H           -1.76136249612625        0.43931095121683        2.54763016650872
H           -2.69210839225784        1.63330303573453        1.63156826359251
H           -3.50554928778199        0.46857767551490        2.66521864249960
H           -2.75755640717609       -2.53212939767992        0.50715075424981
H           -3.51914607493671       -2.02248255522145        2.00161017370085
H           -1.76924125379570       -1.97414553902404        1.86181129643226
H           -4.29669444329765        0.81511390118780       -0.25056873898377
H           -4.41160672979207       -0.92091479010227       -0.57745717409195
H           -4.96805823027436       -0.27704597692883        0.95385201845192
