[Molden Format]
[Title]
[Atoms] AU
C      1     6  0.76821822574794E+01  0.84912669642646E-01  0.19213598005800E+01
C      2     6  0.62218873437149E+01  0.43814201294658E+00 -0.55132215532332E+00
C      3     6  0.79756342212869E+01 -0.17984573422308E+00 -0.27736067003473E+01
C      4     6  0.53552071538606E+01  0.31906957565249E+01 -0.77741489444542E+00
C      5     6  0.39729917217037E+01 -0.14385975161935E+01 -0.61235699036086E+00
N      6     7  0.22723102736532E+01 -0.11775133081287E+01 -0.27856212813568E+01
C      7     6  0.22382921491949E+01 -0.12624616564798E+01  0.17437110567454E+01
N      8     7 -0.21252795127689E+00 -0.23736312461650E+01  0.10061742227707E+01
C      9     6 -0.25136732665896E+01 -0.10479104312077E+01  0.19489211906759E+01
C     10     6 -0.48879556692997E+01 -0.24615593558406E+01  0.12172167501813E+01
C     11     6 -0.50213968433830E+01 -0.40158837553619E+01 -0.89569015905387E+00
C     12     6 -0.72665425422761E+01 -0.52176971013282E+01 -0.15030958991834E+01
C     13     6 -0.93942099215638E+01 -0.48708586311116E+01 -0.24067654493456E-01
C     14     6 -0.92750834668426E+01 -0.33125230905011E+01  0.20751753411789E+01
C     15     6 -0.70346702299802E+01 -0.21184979507332E+01  0.26923985737493E+01
C     16     6 -0.25272570856250E+01  0.16182022116686E+01  0.91233567593230E+00
C     17     6 -0.21007593560182E+01  0.36619416025580E+01  0.25040776893597E+01
C     18     6 -0.20494334823074E+01  0.60956605063696E+01  0.15438959213224E+01
C     19     6 -0.24191454132096E+01  0.65025349924416E+01 -0.10137358656493E+01
C     20     6 -0.28648611413476E+01  0.44725144020621E+01 -0.26066764140833E+01
C     21     6 -0.29217840296624E+01  0.20395897231155E+01 -0.16514891850924E+01
H     22     1  0.81585020402094E+01 -0.18918075238312E+01  0.22177992152300E+01
H     23     1  0.66065639751973E+01  0.76013114460191E+00  0.35345873927963E+01
H     24     1  0.94349300767670E+01  0.11502636527442E+01  0.18460002552839E+01
H     25     1  0.95952448105946E+01  0.10798548482485E+01 -0.27587799720649E+01
H     26     1  0.86703012020532E+01 -0.21096570827070E+01 -0.26432639883033E+01
H     27     1  0.70192906586464E+01  0.55487808537090E-01 -0.45783039536058E+01
H     28     1  0.44992666150102E+01  0.35809366173034E+01 -0.26064370832411E+01
H     29     1  0.69896462179966E+01  0.44195285272987E+01 -0.60055067588090E+00
H     30     1  0.40221118478307E+01  0.37161780544541E+01  0.69559954503898E+00
H     31     1  0.47579022946206E+01 -0.33541925004305E+01 -0.68770440301750E+00
H     32     1  0.19649219934537E+01  0.67365372322369E+00 -0.31911426802820E+01
H     33     1  0.29695687436887E+01 -0.20300257501795E+01 -0.43488949881752E+01
H     34     1  0.30571336928586E+01 -0.22301509919540E+01  0.33616357372910E+01
H     35     1  0.19174950923705E+01  0.71514498128296E+00  0.22235470833566E+01
H     36     1  0.10591962782202E-01 -0.21411493489034E+01 -0.10427020335934E+01
H     37     1 -0.32653737452380E+00 -0.42493259352104E+01  0.14460307109863E+01
H     38     1 -0.23942694446792E+01 -0.96900351287200E+00  0.40160920274939E+01
H     39     1 -0.33992219023118E+01 -0.43206210096593E+01 -0.21009763524026E+01
H     40     1 -0.73460450323611E+01 -0.64261874511907E+01 -0.31434689027184E+01
H     41     1 -0.11137507479922E+02 -0.58093901232940E+01 -0.50652312507421E+00
H     42     1 -0.10925235610504E+02 -0.30294606943434E+01  0.32372580781435E+01
H     43     1 -0.69463843081475E+01 -0.90165727073915E+00  0.43280599400137E+01
H     44     1 -0.18249667264213E+01  0.33576375659656E+01  0.45050993547778E+01
H     45     1 -0.17237832220842E+01  0.76705274477798E+01  0.27960772661163E+01
H     46     1 -0.23793829564306E+01  0.83978473718761E+01 -0.17617858564078E+01
H     47     1 -0.31823992693869E+01  0.47861058053923E+01 -0.45963638706487E+01
H     48     1 -0.33169426187716E+01  0.47211754659426E+00 -0.28972144268708E+01
[GTO]
           1 0
 s           4   1.00000000000000     
   51.0493630955799      -0.163120632101274     
   8.79112274068875      -0.199110245810007     
  0.706404222589298       0.318820477536558     
  0.269228134134116       0.127065041842404     
 p           4   1.00000000000000     
   5.82636561408000       0.737164515452096     
   1.51068960187200       0.682163716148503     
  0.532564832880000       0.357830539292537     
  0.212023236906000       5.398303027584788E-002
 
           2 0
 s           4   1.00000000000000     
   51.0493630955799      -0.163120632101274     
   8.79112274068875      -0.199110245810007     
  0.706404222589298       0.318820477536558     
  0.269228134134116       0.127065041842404     
 p           4   1.00000000000000     
   5.82636561408000       0.737164515452096     
   1.51068960187200       0.682163716148503     
  0.532564832880000       0.357830539292537     
  0.212023236906000       5.398303027584788E-002
 
           3 0
 s           4   1.00000000000000     
   51.0493630955799      -0.163120632101274     
   8.79112274068875      -0.199110245810007     
  0.706404222589298       0.318820477536558     
  0.269228134134116       0.127065041842404     
 p           4   1.00000000000000     
   5.82636561408000       0.737164515452096     
   1.51068960187200       0.682163716148503     
  0.532564832880000       0.357830539292537     
  0.212023236906000       5.398303027584788E-002
 
           4 0
 s           4   1.00000000000000     
   51.0493630955799      -0.163120632101274     
   8.79112274068875      -0.199110245810007     
  0.706404222589298       0.318820477536558     
  0.269228134134116       0.127065041842404     
 p           4   1.00000000000000     
   5.82636561408000       0.737164515452096     
   1.51068960187200       0.682163716148503     
  0.532564832880000       0.357830539292537     
  0.212023236906000       5.398303027584788E-002
 
           5 0
 s           4   1.00000000000000     
   51.0493630955799      -0.163120632101274     
   8.79112274068875      -0.199110245810007     
  0.706404222589298       0.318820477536558     
  0.269228134134116       0.127065041842404     
 p           4   1.00000000000000     
   5.82636561408000       0.737164515452096     
   1.51068960187200       0.682163716148503     
  0.532564832880000       0.357830539292537     
  0.212023236906000       5.398303027584788E-002
 
           6 0
 s           4   1.00000000000000     
   63.5940244669410      -0.192343884147216     
   10.9514172315237      -0.234781079249537     
  0.879993102573770       0.375937539017009     
  0.335387152965211       0.149828892718628     
 p           4   1.00000000000000     
   7.29650404814951       0.976586663156674     
   1.89187454507126       0.903722267303458     
  0.666944321108241       0.474049584615364     
  0.265522026741309       7.151606771501186E-002
 
           7 0
 s           4   1.00000000000000     
   51.0493630955799      -0.163120632101274     
   8.79112274068875      -0.199110245810007     
  0.706404222589298       0.318820477536558     
  0.269228134134116       0.127065041842404     
 p           4   1.00000000000000     
   5.82636561408000       0.737164515452096     
   1.51068960187200       0.682163716148503     
  0.532564832880000       0.357830539292537     
  0.212023236906000       5.398303027584788E-002
 
           8 0
 s           4   1.00000000000000     
   63.5940244669410      -0.192343884147216     
   10.9514172315237      -0.234781079249537     
  0.879993102573770       0.375937539017009     
  0.335387152965211       0.149828892718628     
 p           4   1.00000000000000     
   7.29650404814951       0.976586663156674     
   1.89187454507126       0.903722267303458     
  0.666944321108241       0.474049584615364     
  0.265522026741309       7.151606771501186E-002
 
           9 0
 s           4   1.00000000000000     
   51.0493630955799      -0.163120632101274     
   8.79112274068875      -0.199110245810007     
  0.706404222589298       0.318820477536558     
  0.269228134134116       0.127065041842404     
 p           4   1.00000000000000     
   5.82636561408000       0.737164515452096     
   1.51068960187200       0.682163716148503     
  0.532564832880000       0.357830539292537     
  0.212023236906000       5.398303027584788E-002
 
          10 0
 s           4   1.00000000000000     
   51.0493630955799      -0.163120632101274     
   8.79112274068875      -0.199110245810007     
  0.706404222589298       0.318820477536558     
  0.269228134134116       0.127065041842404     
 p           4   1.00000000000000     
   5.82636561408000       0.737164515452096     
   1.51068960187200       0.682163716148503     
  0.532564832880000       0.357830539292537     
  0.212023236906000       5.398303027584788E-002
 
          11 0
 s           4   1.00000000000000     
   51.0493630955799      -0.163120632101274     
   8.79112274068875      -0.199110245810007     
  0.706404222589298       0.318820477536558     
  0.269228134134116       0.127065041842404     
 p           4   1.00000000000000     
   5.82636561408000       0.737164515452096     
   1.51068960187200       0.682163716148503     
  0.532564832880000       0.357830539292537     
  0.212023236906000       5.398303027584788E-002
 
          12 0
 s           4   1.00000000000000     
   51.0493630955799      -0.163120632101274     
   8.79112274068875      -0.199110245810007     
  0.706404222589298       0.318820477536558     
  0.269228134134116       0.127065041842404     
 p           4   1.00000000000000     
   5.82636561408000       0.737164515452096     
   1.51068960187200       0.682163716148503     
  0.532564832880000       0.357830539292537     
  0.212023236906000       5.398303027584788E-002
 
          13 0
 s           4   1.00000000000000     
   51.0493630955799      -0.163120632101274     
   8.79112274068875      -0.199110245810007     
  0.706404222589298       0.318820477536558     
  0.269228134134116       0.127065041842404     
 p           4   1.00000000000000     
   5.82636561408000       0.737164515452096     
   1.51068960187200       0.682163716148503     
  0.532564832880000       0.357830539292537     
  0.212023236906000       5.398303027584788E-002
 
          14 0
 s           4   1.00000000000000     
   51.0493630955799      -0.163120632101274     
   8.79112274068875      -0.199110245810007     
  0.706404222589298       0.318820477536558     
  0.269228134134116       0.127065041842404     
 p           4   1.00000000000000     
   5.82636561408000       0.737164515452096     
   1.51068960187200       0.682163716148503     
  0.532564832880000       0.357830539292537     
  0.212023236906000       5.398303027584788E-002
 
          15 0
 s           4   1.00000000000000     
   51.0493630955799      -0.163120632101274     
   8.79112274068875      -0.199110245810007     
  0.706404222589298       0.318820477536558     
  0.269228134134116       0.127065041842404     
 p           4   1.00000000000000     
   5.82636561408000       0.737164515452096     
   1.51068960187200       0.682163716148503     
  0.532564832880000       0.357830539292537     
  0.212023236906000       5.398303027584788E-002
 
          16 0
 s           4   1.00000000000000     
   51.0493630955799      -0.163120632101274     
   8.79112274068875      -0.199110245810007     
  0.706404222589298       0.318820477536558     
  0.269228134134116       0.127065041842404     
 p           4   1.00000000000000     
   5.82636561408000       0.737164515452096     
   1.51068960187200       0.682163716148503     
  0.532564832880000       0.357830539292537     
  0.212023236906000       5.398303027584788E-002
 
          17 0
 s           4   1.00000000000000     
   51.0493630955799      -0.163120632101274     
   8.79112274068875      -0.199110245810007     
  0.706404222589298       0.318820477536558     
  0.269228134134116       0.127065041842404     
 p           4   1.00000000000000     
   5.82636561408000       0.737164515452096     
   1.51068960187200       0.682163716148503     
  0.532564832880000       0.357830539292537     
  0.212023236906000       5.398303027584788E-002
 
          18 0
 s           4   1.00000000000000     
   51.0493630955799      -0.163120632101274     
   8.79112274068875      -0.199110245810007     
  0.706404222589298       0.318820477536558     
  0.269228134134116       0.127065041842404     
 p           4   1.00000000000000     
   5.82636561408000       0.737164515452096     
   1.51068960187200       0.682163716148503     
  0.532564832880000       0.357830539292537     
  0.212023236906000       5.398303027584788E-002
 
          19 0
 s           4   1.00000000000000     
   51.0493630955799      -0.163120632101274     
   8.79112274068875      -0.199110245810007     
  0.706404222589298       0.318820477536558     
  0.269228134134116       0.127065041842404     
 p           4   1.00000000000000     
   5.82636561408000       0.737164515452096     
   1.51068960187200       0.682163716148503     
  0.532564832880000       0.357830539292537     
  0.212023236906000       5.398303027584788E-002
 
          20 0
 s           4   1.00000000000000     
   51.0493630955799      -0.163120632101274     
   8.79112274068875      -0.199110245810007     
  0.706404222589298       0.318820477536558     
  0.269228134134116       0.127065041842404     
 p           4   1.00000000000000     
   5.82636561408000       0.737164515452096     
   1.51068960187200       0.682163716148503     
  0.532564832880000       0.357830539292537     
  0.212023236906000       5.398303027584788E-002
 
          21 0
 s           4   1.00000000000000     
   51.0493630955799      -0.163120632101274     
   8.79112274068875      -0.199110245810007     
  0.706404222589298       0.318820477536558     
  0.269228134134116       0.127065041842404     
 p           4   1.00000000000000     
   5.82636561408000       0.737164515452096     
   1.51068960187200       0.682163716148503     
  0.532564832880000       0.357830539292537     
  0.212023236906000       5.398303027584788E-002
 
          22 0
 s           3   1.00000000000000     
   3.37022769753360       0.273591105889083     
  0.613891182214980       0.264605406538605     
  0.166142911484160       8.246594753408230E-002
 
          23 0
 s           3   1.00000000000000     
   3.37022769753360       0.273591105889083     
  0.613891182214980       0.264605406538605     
  0.166142911484160       8.246594753408230E-002
 
          24 0
 s           3   1.00000000000000     
   3.37022769753360       0.273591105889083     
  0.613891182214980       0.264605406538605     
  0.166142911484160       8.246594753408230E-002
 
          25 0
 s           3   1.00000000000000     
   3.37022769753360       0.273591105889083     
  0.613891182214980       0.264605406538605     
  0.166142911484160       8.246594753408230E-002
 
          26 0
 s           3   1.00000000000000     
   3.37022769753360       0.273591105889083     
  0.613891182214980       0.264605406538605     
  0.166142911484160       8.246594753408230E-002
 
          27 0
 s           3   1.00000000000000     
   3.37022769753360       0.273591105889083     
  0.613891182214980       0.264605406538605     
  0.166142911484160       8.246594753408230E-002
 
          28 0
 s           3   1.00000000000000     
   3.37022769753360       0.273591105889083     
  0.613891182214980       0.264605406538605     
  0.166142911484160       8.246594753408230E-002
 
          29 0
 s           3   1.00000000000000     
   3.37022769753360       0.273591105889083     
  0.613891182214980       0.264605406538605     
  0.166142911484160       8.246594753408230E-002
 
          30 0
 s           3   1.00000000000000     
   3.37022769753360       0.273591105889083     
  0.613891182214980       0.264605406538605     
  0.166142911484160       8.246594753408230E-002
 
          31 0
 s           3   1.00000000000000     
   3.37022769753360       0.273591105889083     
  0.613891182214980       0.264605406538605     
  0.166142911484160       8.246594753408230E-002
 
          32 0
 s           3   1.00000000000000     
   3.37022769753360       0.273591105889083     
  0.613891182214980       0.264605406538605     
  0.166142911484160       8.246594753408230E-002
 
          33 0
 s           3   1.00000000000000     
   3.37022769753360       0.273591105889083     
  0.613891182214980       0.264605406538605     
  0.166142911484160       8.246594753408230E-002
 
          34 0
 s           3   1.00000000000000     
   3.37022769753360       0.273591105889083     
  0.613891182214980       0.264605406538605     
  0.166142911484160       8.246594753408230E-002
 
          35 0
 s           3   1.00000000000000     
   3.37022769753360       0.273591105889083     
  0.613891182214980       0.264605406538605     
  0.166142911484160       8.246594753408230E-002
 
          36 0
 s           3   1.00000000000000     
   3.37022769753360       0.273591105889083     
  0.613891182214980       0.264605406538605     
  0.166142911484160       8.246594753408230E-002
 
          37 0
 s           3   1.00000000000000     
   3.37022769753360       0.273591105889083     
  0.613891182214980       0.264605406538605     
  0.166142911484160       8.246594753408230E-002
 
          38 0
 s           3   1.00000000000000     
   3.37022769753360       0.273591105889083     
  0.613891182214980       0.264605406538605     
  0.166142911484160       8.246594753408230E-002
 
          39 0
 s           3   1.00000000000000     
   3.37022769753360       0.273591105889083     
  0.613891182214980       0.264605406538605     
  0.166142911484160       8.246594753408230E-002
 
          40 0
 s           3   1.00000000000000     
   3.37022769753360       0.273591105889083     
  0.613891182214980       0.264605406538605     
  0.166142911484160       8.246594753408230E-002
 
          41 0
 s           3   1.00000000000000     
   3.37022769753360       0.273591105889083     
  0.613891182214980       0.264605406538605     
  0.166142911484160       8.246594753408230E-002
 
          42 0
 s           3   1.00000000000000     
   3.37022769753360       0.273591105889083     
  0.613891182214980       0.264605406538605     
  0.166142911484160       8.246594753408230E-002
 
          43 0
 s           3   1.00000000000000     
   3.37022769753360       0.273591105889083     
  0.613891182214980       0.264605406538605     
  0.166142911484160       8.246594753408230E-002
 
          44 0
 s           3   1.00000000000000     
   3.37022769753360       0.273591105889083     
  0.613891182214980       0.264605406538605     
  0.166142911484160       8.246594753408230E-002
 
          45 0
 s           3   1.00000000000000     
   3.37022769753360       0.273591105889083     
  0.613891182214980       0.264605406538605     
  0.166142911484160       8.246594753408230E-002
 
          46 0
 s           3   1.00000000000000     
   3.37022769753360       0.273591105889083     
  0.613891182214980       0.264605406538605     
  0.166142911484160       8.246594753408230E-002
 
          47 0
 s           3   1.00000000000000     
   3.37022769753360       0.273591105889083     
  0.613891182214980       0.264605406538605     
  0.166142911484160       8.246594753408230E-002
 
          48 0
 s           3   1.00000000000000     
   3.37022769753360       0.273591105889083     
  0.613891182214980       0.264605406538605     
  0.166142911484160       8.246594753408230E-002
 
[MO]
Sym=     1a
Ene=  -0.836399813730069     
Spin= Alpha
Occup=     2.00000000
           1  6.480904141339820E-004
           2 -2.015362662869284E-003
           3 -5.392980330835990E-004
           4 -8.443509036955506E-004
           5  8.825301375856204E-003
           6 -1.215041760210681E-002
           7 -5.874420079725496E-003
           8  1.768252439797153E-003
           9 -4.509706316167080E-004
          10 -9.581113898807581E-004
          11 -1.865850869718482E-004
          12  4.669979539177142E-004
          13  2.013095393418672E-003
          14 -1.442337335706458E-003
          15 -2.638003970119754E-003
          16  4.737829345242486E-004
          17  0.107797941546931     
          18 -6.790655098803616E-002
          19 -4.454782961192877E-003
          20  2.774642343902207E-002
          21  5.834046616854563E-002
          22 -2.806757702066404E-003
          23 -1.023351115651748E-002
          24  6.178757056967962E-002
          25  0.288900086656571     
          26 -0.131302126767706     
          27 -5.722607007013095E-002
          28 -6.099667731850211E-002
          29  0.534172811098234     
          30  7.535237140544337E-002
          31  9.375854323571860E-002
          32  5.312719165052526E-002
          33  0.187983588832775     
          34  0.109312960357101     
          35 -3.896693831300528E-002
          36 -3.809898891520826E-002
          37  3.005093739308521E-002
          38  3.107723348596684E-002
          39  7.265953023444811E-003
          40  1.531620251813159E-003
          41  8.297777361554964E-003
          42  6.645079794424903E-003
          43  4.741520096171270E-003
          44  5.056831432945491E-003
          45 -4.395946848905181E-004
          46  5.572120152756709E-004
          47  2.790404300703727E-004
          48  2.200866096098442E-004
          49 -4.550789038068486E-004
          50 -4.843088404237511E-005
          51 -6.047823585765583E-005
          52 -4.139543389086683E-005
          53 -8.955658344928630E-004
          54 -7.109413943854210E-005
          55 -7.016186550501452E-005
          56 -1.743946017254542E-005
          57  3.996369065181185E-004
          58  3.812647015968599E-003
          59  1.004362393561929E-004
          60 -1.031543911036770E-003
          61  5.092942165982195E-002
          62  1.889307471268745E-002
          63 -3.829446229598194E-002
          64  6.607005425630628E-003
          65  8.178777163144640E-003
          66  1.852211922317612E-003
          67 -9.696589812167479E-003
          68 -3.272808842020440E-003
          69 -1.943518705737809E-004
          70  1.969509109824081E-004
          71 -1.023520137992706E-003
          72 -4.668743379826496E-005
          73 -2.316278925007716E-004
          74  7.749054268422046E-005
          75 -2.670967301678263E-004
          76  6.663639639201489E-005
          77  5.172090670169341E-005
          78  3.709879583489281E-004
          79 -1.115487397004437E-003
          80  7.842526843779745E-004
          81  1.155952275269592E-002
          82  5.009763272361622E-003
          83 -7.521232922490265E-003
          84  8.986485535240582E-003
          85  1.370195783704973E-004
          86  3.864227422609415E-004
          87 -4.315502388750412E-005
          88  2.697868109399570E-006
          89  1.959376057778471E-005
          90 -5.062597741352286E-005
          91  3.380306425751030E-004
          92 -4.189873880055347E-005
          93  1.690257599326345E-003
          94  2.045835458330426E-002
          95  6.675557191646196E-003
          96 -8.535400811228103E-004
          97  5.370122105553312E-002
          98  6.042195922108800E-002
          99  0.126262863836202     
         100  0.124104272831036     
         101  3.963872631793001E-002
         102  6.106494567380434E-003
         103 -9.189770529358706E-006
         104  7.842386949449071E-006
         105  2.081643905280847E-005
         106  2.781553765823139E-004
         107  1.976168071067324E-003
         108  3.928891009352071E-005
         109  1.123659803510983E-005
         110  4.230247157521042E-005
         111  3.675421888780047E-003
Sym=     2a
Ene=  -0.811237866003843     
Spin= Alpha
Occup=     2.00000000
           1  1.126784061611229E-002
           2 -1.065536200919678E-002
           3 -2.258770974131205E-003
           4 -6.812405624326569E-003
           5  5.622874105309370E-002
           6 -3.808553963101050E-002
           7 -2.280731868116656E-002
           8  2.930672644124258E-003
           9  7.648597905481646E-003
          10 -8.570691884227856E-003
          11 -9.558877662636298E-004
          12  5.612550458847333E-003
          13  1.307048565831292E-002
          14 -3.226325494309617E-003
          15 -1.322794039745544E-002
          16  1.324659174055400E-003
          17  0.255122309906070     
          18 -8.633224447387366E-002
          19  1.743172116229856E-003
          20  2.593231718488034E-002
          21  0.137715687583881     
          22  3.944344813552651E-002
          23 -1.330559629615429E-002
          24  0.104543333247172     
          25  0.267232359214556     
          26  2.902904561349143E-002
          27 -4.194604914058314E-002
          28 -9.456706604221284E-002
          29 -0.131179412786937     
          30  0.363464255332433     
          31 -2.394217410655643E-002
          32 -8.015003497509536E-002
          33 -0.358173206776238     
          34 -5.364324202035630E-002
          35  6.760687092068621E-002
          36  5.619404819993954E-002
          37 -0.135655770959864     
          38 -8.135324670901026E-002
          39 -2.476022623464650E-002
          40 -7.759213170342118E-003
          41 -4.137565655102336E-002
          42 -1.869675615910296E-002
          43 -2.029314480101541E-002
          44 -2.363424197019947E-002
          45 -1.885434866275025E-003
          46 -3.907359378482475E-003
          47 -2.929555657138695E-003
          48 -2.580796737810386E-003
          49  1.082564360336780E-004
          50 -1.188519356840375E-003
          51 -4.782394261933469E-004
          52 -1.897613411957869E-004
          53 -4.105892841577798E-006
          54 -3.052027859717233E-003
          55 -5.646094177841551E-004
          56  4.713462653692348E-004
          57 -2.185323269815294E-002
          58 -2.373644092931101E-002
          59 -5.489936412346226E-004
          60  8.867443392570926E-003
          61 -0.108261320876135     
          62 -6.762827273305251E-003
          63  6.934669970633199E-002
          64 -1.524234577913515E-002
          65 -1.937063327044842E-002
          66  1.717754759504852E-003
          67  2.046895998736722E-002
          68  7.271143508208145E-003
          69  1.382765684905984E-004
          70  1.930785913292186E-004
          71  2.695153784753230E-003
          72  2.381723422999113E-004
          73  2.542107102117792E-004
          74  1.090989928395196E-005
          75  9.282483863347659E-004
          76 -2.444879910608126E-004
          77 -8.779312466488453E-004
          78 -2.898473198329565E-004
          79  2.933093851127703E-003
          80 -2.478815140949043E-003
          81 -2.796373509832190E-002
          82 -4.112048545795437E-003
          83  1.444849111477052E-002
          84 -2.176063639978652E-002
          85  2.791948490218855E-003
          86  3.921109454530997E-003
          87  4.155967881746899E-004
          88  3.297857228271799E-004
          89  1.677275382015678E-003
          90  2.057802337169779E-003
          91  3.136868462846146E-003
          92  6.118758066506507E-004
          93  5.040042396570643E-003
          94  6.052388633729259E-002
          95  2.170361812071203E-002
          96  1.428575843659873E-002
          97  6.334855548279200E-002
          98  4.941226738261967E-002
          99  2.104669065893956E-002
         100 -4.604697839718460E-002
         101 -8.355544249730595E-002
         102 -1.508998690315114E-002
         103 -1.259990266249689E-004
         104  1.219580120032122E-005
         105 -3.492994637446370E-006
         106 -4.920478415632722E-003
         107 -5.210392499758925E-003
         108  5.572089297151145E-005
         109  4.250031577102948E-005
         110 -2.718278022262988E-005
         111 -9.140433964119531E-003
Sym=     3a
Ene=  -0.784858942720975     
Spin= Alpha
Occup=     2.00000000
           1  3.784562405622775E-002
           2 -2.327829173902210E-002
           3 -1.892049718894027E-003
           4 -2.528079584749216E-002
           5  0.172077138162416     
           6 -6.527836368716258E-002
           7 -4.133627399681881E-002
           8 -1.324561267424109E-002
           9  4.800811184718260E-002
          10 -3.281668234933979E-002
          11 -2.109623210720763E-004
          12  2.328768202695904E-002
          13  5.223615638346910E-002
          14 -2.629640708658655E-003
          15 -4.099274225163590E-002
          16  4.436436364979686E-005
          17  0.337664820552249     
          18 -1.809960322606445E-002
          19  4.829813567508670E-002
          20 -8.272395779364129E-002
          21  0.277811699657717     
          22  0.102918281351188     
          23  4.836951489599896E-003
          24  0.106658538599599     
          25 -4.151733058831517E-002
          26  0.119185095051076     
          27  8.259978632494189E-002
          28 -7.608267132275694E-002
          29 -0.188453795436469     
          30 -0.158252696270008     
          31  0.115811751431931     
          32 -7.158494072451235E-002
          33  0.228339434239814     
          34 -5.343650056444595E-002
          35  5.028450086164168E-002
          36 -4.463574445080978E-002
          37  0.140785376775581     
          38  4.171375298535474E-002
          39  3.336459939523366E-002
          40  4.866470514897141E-003
          41  4.832493867972672E-002
          42  7.397115430553394E-003
          43  2.258222902925723E-002
          44  2.336409828878348E-002
          45  9.725748682170899E-003
          46  5.461204177211033E-003
          47  6.096065143847233E-003
          48  5.402237459112644E-003
          49  5.472702363684995E-003
          50  4.376903374207443E-003
          51  2.297329975156296E-003