[Molden Format]
[Title]
[Atoms] AU
C      1     6 -0.60640442338742E+00 -0.10220981895519E+01 -0.44496756746424E+01
N      2     7 -0.61698412084295E+00 -0.11715522704671E+01 -0.16821147347392E+01
C      3     6 -0.19580848107094E+01 -0.34389472980338E+01 -0.82285828099848E+00
C      4     6 -0.11140349121508E+01  0.12626753978582E+01 -0.31850187129555E+00
C      5     6  0.75481687688356E+00  0.12413126490172E+01  0.19686144038984E+01
N      6     7  0.29935805702354E+01 -0.10650222710358E+00  0.11807859250380E+01
C      7     6  0.40416210337555E+01 -0.21048976668678E+01  0.27409189286838E+01
C      8     6  0.53829825669414E+01 -0.39506871837122E+01  0.89085824540661E+00
O      9     8  0.52033344118376E+01 -0.30090902431115E+01 -0.16005688612084E+01
C     10     6  0.63710259317897E+01 -0.61698128617050E+00 -0.18112499161747E+01
C     11     6  0.50063688074667E+01  0.12967516686483E+01 -0.54062766735553E-01
C     12     6 -0.38583898181277E+01  0.20458820571009E+01  0.35822352879473E+00
C     13     6 -0.55043680196222E+01  0.20502312811979E+01 -0.20256073259794E+01
C     14     6 -0.51605556371098E+01  0.46169986207916E+00  0.24004153623947E+01
C     15     6 -0.36992462366337E+01  0.47787953242803E+01  0.13349057174502E+01
H     16     1 -0.25173457773202E+01 -0.90843891706125E+00 -0.51996561570699E+01
H     17     1  0.30933213589960E+00 -0.27029594208653E+01 -0.52053520897033E+01
H     18     1  0.45391895370198E+00  0.62385903602314E+00 -0.50735669710420E+01
H     19     1  0.13446641427488E+01 -0.13901707095093E+01 -0.10363180412035E+01
H     20     1 -0.19492510438173E+01 -0.35352054259511E+01  0.12267496212499E+01
H     21     1 -0.99526720682062E+00 -0.51001920658588E+01 -0.15654578834300E+01
H     22     1 -0.38977734166854E+01 -0.34567533235088E+01 -0.15038349611299E+01
H     23     1 -0.44060664659203E+00  0.27203058405322E+01 -0.16251039081858E+01
H     24     1 -0.82456656092046E-01  0.26570692283413E+00  0.35777163882608E+01
H     25     1  0.11669801531947E+01  0.31806063058021E+01  0.25424653550510E+01
H     26     1  0.25266953124565E+01 -0.30652446623998E+01  0.37555388464211E+01
H     27     1  0.53855141176844E+01 -0.13589887261351E+01  0.41354736269715E+01
H     28     1  0.44669641094113E+01 -0.57968956172690E+01  0.85835842541005E+00
H     29     1  0.73691809842617E+01 -0.42058605428384E+01  0.14213841852090E+01
H     30     1  0.83801496839563E+01 -0.75553587937319E+00 -0.13267783257443E+01
H     31     1  0.62071054416252E+01 -0.85192442706847E-01 -0.37955545941412E+01
H     32     1  0.41995363531566E+01  0.28476530017004E+01 -0.11437251825970E+01
H     33     1  0.63280387910859E+01  0.20989988647808E+01  0.13296461029004E+01
H     34     1 -0.58697568576132E+01  0.15341505984817E+00 -0.27213164107695E+01
H     35     1 -0.46440075610588E+01  0.31651857303511E+01 -0.35220641585263E+01
H     36     1 -0.73250854703350E+01  0.28932621105754E+01 -0.15896606316343E+01
H     37     1 -0.57244894781384E+01 -0.13921539441876E+01  0.17338315398389E+01
H     38     1 -0.68733901716260E+01  0.14378652198911E+01  0.29773609742933E+01
H     39     1 -0.39979165233237E+01  0.24963692907598E+00  0.40784509125518E+01
H     40     1 -0.55922325754046E+01  0.55384515680082E+01  0.15611486842764E+01
H     41     1 -0.26920741701651E+01  0.59938801561772E+01  0.19328583965903E-01
H     42     1 -0.27720888445279E+01  0.48681730568869E+01  0.31633605972768E+01
[GTO]
           1 0
 s           4   1.00000000000000     
   51.0493630955799      -0.163120632101274     
   8.79112274068875      -0.199110245810007     
  0.706404222589298       0.318820477536558     
  0.269228134134116       0.127065041842404     
 p           4   1.00000000000000     
   5.82636561408000       0.737164515452096     
   1.51068960187200       0.682163716148503     
  0.532564832880000       0.357830539292537     
  0.212023236906000       5.398303027584788E-002
 
           2 0
 s           4   1.00000000000000     
   63.5940244669410      -0.192343884147216     
   10.9514172315237      -0.234781079249537     
  0.879993102573770       0.375937539017009     
  0.335387152965211       0.149828892718628     
 p           4   1.00000000000000     
   7.29650404814951       0.976586663156674     
   1.89187454507126       0.903722267303458     
  0.666944321108241       0.474049584615364     
  0.265522026741309       7.151606771501186E-002
 
           3 0
 s           4   1.00000000000000     
   51.0493630955799      -0.163120632101274     
   8.79112274068875      -0.199110245810007     
  0.706404222589298       0.318820477536558     
  0.269228134134116       0.127065041842404     
 p           4   1.00000000000000     
   5.82636561408000       0.737164515452096     
   1.51068960187200       0.682163716148503     
  0.532564832880000       0.357830539292537     
  0.212023236906000       5.398303027584788E-002
 
           4 0
 s           4   1.00000000000000     
   51.0493630955799      -0.163120632101274     
   8.79112274068875      -0.199110245810007     
  0.706404222589298       0.318820477536558     
  0.269228134134116       0.127065041842404     
 p           4   1.00000000000000     
   5.82636561408000       0.737164515452096     
   1.51068960187200       0.682163716148503     
  0.532564832880000       0.357830539292537     
  0.212023236906000       5.398303027584788E-002
 
           5 0
 s           4   1.00000000000000     
   51.0493630955799      -0.163120632101274     
   8.79112274068875      -0.199110245810007     
  0.706404222589298       0.318820477536558     
  0.269228134134116       0.127065041842404     
 p           4   1.00000000000000     
   5.82636561408000       0.737164515452096     
   1.51068960187200       0.682163716148503     
  0.532564832880000       0.357830539292537     
  0.212023236906000       5.398303027584788E-002
 
           6 0
 s           4   1.00000000000000     
   63.5940244669410      -0.192343884147216     
   10.9514172315237      -0.234781079249537     
  0.879993102573770       0.375937539017009     
  0.335387152965211       0.149828892718628     
 p           4   1.00000000000000     
   7.29650404814951       0.976586663156674     
   1.89187454507126       0.903722267303458     
  0.666944321108241       0.474049584615364     
  0.265522026741309       7.151606771501186E-002
 
           7 0
 s           4   1.00000000000000     
   51.0493630955799      -0.163120632101274     
   8.79112274068875      -0.199110245810007     
  0.706404222589298       0.318820477536558     
  0.269228134134116       0.127065041842404     
 p           4   1.00000000000000     
   5.82636561408000       0.737164515452096     
   1.51068960187200       0.682163716148503     
  0.532564832880000       0.357830539292537     
  0.212023236906000       5.398303027584788E-002
 
           8 0
 s           4   1.00000000000000     
   51.0493630955799      -0.163120632101274     
   8.79112274068875      -0.199110245810007     
  0.706404222589298       0.318820477536558     
  0.269228134134116       0.127065041842404     
 p           4   1.00000000000000     
   5.82636561408000       0.737164515452096     
   1.51068960187200       0.682163716148503     
  0.532564832880000       0.357830539292537     
  0.212023236906000       5.398303027584788E-002
 
           9 0
 s           4   1.00000000000000     
   69.1379619061966      -0.204787563700778     
   11.9061291327073      -0.249970231368273     
  0.956708277443407       0.400258802406396     
  0.364625204960737       0.159522066676936     
 p           4   1.00000000000000     
   8.21241932577816        1.13215567991868     
   2.12935769970981        1.04768407822548     
  0.750664482023609       0.549565082171590     
  0.298852465432831       8.290848659276662E-002
 
          10 0
 s           4   1.00000000000000     
   51.0493630955799      -0.163120632101274     
   8.79112274068875      -0.199110245810007     
  0.706404222589298       0.318820477536558     
  0.269228134134116       0.127065041842404     
 p           4   1.00000000000000     
   5.82636561408000       0.737164515452096     
   1.51068960187200       0.682163716148503     
  0.532564832880000       0.357830539292537     
  0.212023236906000       5.398303027584788E-002
 
          11 0
 s           4   1.00000000000000     
   51.0493630955799      -0.163120632101274     
   8.79112274068875      -0.199110245810007     
  0.706404222589298       0.318820477536558     
  0.269228134134116       0.127065041842404     
 p           4   1.00000000000000     
   5.82636561408000       0.737164515452096     
   1.51068960187200       0.682163716148503     
  0.532564832880000       0.357830539292537     
  0.212023236906000       5.398303027584788E-002
 
          12 0
 s           4   1.00000000000000     
   51.0493630955799      -0.163120632101274     
   8.79112274068875      -0.199110245810007     
  0.706404222589298       0.318820477536558     
  0.269228134134116       0.127065041842404     
 p           4   1.00000000000000     
   5.82636561408000       0.737164515452096     
   1.51068960187200       0.682163716148503     
  0.532564832880000       0.357830539292537     
  0.212023236906000       5.398303027584788E-002
 
          13 0
 s           4   1.00000000000000     
   51.0493630955799      -0.163120632101274     
   8.79112274068875      -0.199110245810007     
  0.706404222589298       0.318820477536558     
  0.269228134134116       0.127065041842404     
 p           4   1.00000000000000     
   5.82636561408000       0.737164515452096     
   1.51068960187200       0.682163716148503     
  0.532564832880000       0.357830539292537     
  0.212023236906000       5.398303027584788E-002
 
          14 0
 s           4   1.00000000000000     
   51.0493630955799      -0.163120632101274     
   8.79112274068875      -0.199110245810007     
  0.706404222589298       0.318820477536558     
  0.269228134134116       0.127065041842404     
 p           4   1.00000000000000     
   5.82636561408000       0.737164515452096     
   1.51068960187200       0.682163716148503     
  0.532564832880000       0.357830539292537     
  0.212023236906000       5.398303027584788E-002
 
          15 0
 s           4   1.00000000000000     
   51.0493630955799      -0.163120632101274     
   8.79112274068875      -0.199110245810007     
  0.706404222589298       0.318820477536558     
  0.269228134134116       0.127065041842404     
 p           4   1.00000000000000     
   5.82636561408000       0.737164515452096     
   1.51068960187200       0.682163716148503     
  0.532564832880000       0.357830539292537     
  0.212023236906000       5.398303027584788E-002
 
          16 0
 s           3   1.00000000000000     
   3.37022769753360       0.273591105889083     
  0.613891182214980       0.264605406538605     
  0.166142911484160       8.246594753408230E-002
 
          17 0
 s           3   1.00000000000000     
   3.37022769753360       0.273591105889083     
  0.613891182214980       0.264605406538605     
  0.166142911484160       8.246594753408230E-002
 
          18 0
 s           3   1.00000000000000     
   3.37022769753360       0.273591105889083     
  0.613891182214980       0.264605406538605     
  0.166142911484160       8.246594753408230E-002
 
          19 0
 s           3   1.00000000000000     
   3.37022769753360       0.273591105889083     
  0.613891182214980       0.264605406538605     
  0.166142911484160       8.246594753408230E-002
 
          20 0
 s           3   1.00000000000000     
   3.37022769753360       0.273591105889083     
  0.613891182214980       0.264605406538605     
  0.166142911484160       8.246594753408230E-002
 
          21 0
 s           3   1.00000000000000     
   3.37022769753360       0.273591105889083     
  0.613891182214980       0.264605406538605     
  0.166142911484160       8.246594753408230E-002
 
          22 0
 s           3   1.00000000000000     
   3.37022769753360       0.273591105889083     
  0.613891182214980       0.264605406538605     
  0.166142911484160       8.246594753408230E-002
 
          23 0
 s           3   1.00000000000000     
   3.37022769753360       0.273591105889083     
  0.613891182214980       0.264605406538605     
  0.166142911484160       8.246594753408230E-002
 
          24 0
 s           3   1.00000000000000     
   3.37022769753360       0.273591105889083     
  0.613891182214980       0.264605406538605     
  0.166142911484160       8.246594753408230E-002
 
          25 0
 s           3   1.00000000000000     
   3.37022769753360       0.273591105889083     
  0.613891182214980       0.264605406538605     
  0.166142911484160       8.246594753408230E-002
 
          26 0
 s           3   1.00000000000000     
   3.37022769753360       0.273591105889083     
  0.613891182214980       0.264605406538605     
  0.166142911484160       8.246594753408230E-002
 
          27 0
 s           3   1.00000000000000     
   3.37022769753360       0.273591105889083     
  0.613891182214980       0.264605406538605     
  0.166142911484160       8.246594753408230E-002
 
          28 0
 s           3   1.00000000000000     
   3.37022769753360       0.273591105889083     
  0.613891182214980       0.264605406538605     
  0.166142911484160       8.246594753408230E-002
 
          29 0
 s           3   1.00000000000000     
   3.37022769753360       0.273591105889083     
  0.613891182214980       0.264605406538605     
  0.166142911484160       8.246594753408230E-002
 
          30 0
 s           3   1.00000000000000     
   3.37022769753360       0.273591105889083     
  0.613891182214980       0.264605406538605     
  0.166142911484160       8.246594753408230E-002
 
          31 0
 s           3   1.00000000000000     
   3.37022769753360       0.273591105889083     
  0.613891182214980       0.264605406538605     
  0.166142911484160       8.246594753408230E-002
 
          32 0
 s           3   1.00000000000000     
   3.37022769753360       0.273591105889083     
  0.613891182214980       0.264605406538605     
  0.166142911484160       8.246594753408230E-002
 
          33 0
 s           3   1.00000000000000     
   3.37022769753360       0.273591105889083     
  0.613891182214980       0.264605406538605     
  0.166142911484160       8.246594753408230E-002
 
          34 0
 s           3   1.00000000000000     
   3.37022769753360       0.273591105889083     
  0.613891182214980       0.264605406538605     
  0.166142911484160       8.246594753408230E-002
 
          35 0
 s           3   1.00000000000000     
   3.37022769753360       0.273591105889083     
  0.613891182214980       0.264605406538605     
  0.166142911484160       8.246594753408230E-002
 
          36 0
 s           3   1.00000000000000     
   3.37022769753360       0.273591105889083     
  0.613891182214980       0.264605406538605     
  0.166142911484160       8.246594753408230E-002
 
          37 0
 s           3   1.00000000000000     
   3.37022769753360       0.273591105889083     
  0.613891182214980       0.264605406538605     
  0.166142911484160       8.246594753408230E-002
 
          38 0
 s           3   1.00000000000000     
   3.37022769753360       0.273591105889083     
  0.613891182214980       0.264605406538605     
  0.166142911484160       8.246594753408230E-002
 
          39 0
 s           3   1.00000000000000     
   3.37022769753360       0.273591105889083     
  0.613891182214980       0.264605406538605     
  0.166142911484160       8.246594753408230E-002
 
          40 0
 s           3   1.00000000000000     
   3.37022769753360       0.273591105889083     
  0.613891182214980       0.264605406538605     
  0.166142911484160       8.246594753408230E-002
 
          41 0
 s           3   1.00000000000000     
   3.37022769753360       0.273591105889083     
  0.613891182214980       0.264605406538605     
  0.166142911484160       8.246594753408230E-002
 
          42 0
 s           3   1.00000000000000     
   3.37022769753360       0.273591105889083     
  0.613891182214980       0.264605406538605     
  0.166142911484160       8.246594753408230E-002
 
[MO]
Sym=     1a
Ene=  -0.835771001471736     
Spin= Alpha
Occup=     2.00000000
           1  0.184796247023621     
           2 -8.560325621968594E-003
           3 -3.265760439546437E-003
           4  0.135775831241661     
           5  0.547341951589826     
           6 -5.031705063203882E-002
           7  2.180496830899708E-002
           8 -1.557448259489301E-003
           9  0.188108702085881     
          10  5.941747262666382E-002
          11  0.114643195870542     
          12 -4.256652204065202E-002
          13  0.230849640081399     
          14  3.002737451284038E-002
          15 -0.112331593409351     
          16 -5.187643922133710E-002
          17  9.052522759666089E-002
          18 -1.317879505699152E-002
          19 -2.723452630099950E-002
          20 -5.277023893577978E-002
          21  6.552872525222592E-002
          22 -4.027113147365993E-002
          23  4.329474697561153E-003
          24 -1.759331685563809E-002
          25  1.446865418143782E-002
          26 -6.940946520934865E-003
          27  3.353967965501334E-003
          28 -1.188923018670994E-002
          29  2.684438764897393E-002
          30 -6.157156598301890E-003
          31  1.201731242987990E-002
          32 -1.890603838669002E-002
          33  9.936611711147152E-002
          34 -1.061235308425702E-002
          35  1.142541308964789E-002
          36  9.251778337360995E-003
          37  2.806577236862311E-002
          38 -1.561397788401728E-002
          39 -1.691622032520399E-002
          40  5.050823194241632E-003
          41  1.915663191989973E-002
          42 -1.328394942960479E-002
          43 -9.762344640066164E-003
          44 -1.493703338335575E-003
          45  3.934265206987681E-002
          46  3.011534672789928E-002
          47 -1.977343346739491E-002
          48 -1.244067771079166E-002
          49  9.418886030580801E-003
          50  9.602435313659549E-003
          51 -4.057034169219885E-003
          52  3.610646891361191E-003
          53  6.959974743859280E-003
          54  6.644471596164626E-003
          55  2.085923213051989E-004
          56 -5.827553904292792E-003
          57  2.208173992465748E-003
          58  2.107189023519729E-003
          59 -4.802386469397170E-003
          60 -2.106712471906811E-003
          61  3.320685369786935E-002
          62  3.154239660350113E-002
          63  3.418359359560023E-002
          64  0.125234984517854     
          65  3.468214572041516E-002
          66  3.359632766357962E-002
          67  3.424897709909693E-002
          68  5.179717248504773E-002
          69  1.680135533588974E-002
          70  1.073436026244739E-002
          71  3.546153743683003E-003
          72  1.872487377145921E-004
          73  2.202162980373830E-003
          74  1.433346928984280E-003
          75  1.561903018045149E-003
          76  2.448488372286676E-003
          77  5.747348566355313E-003
          78  7.016202234212560E-004
          79  5.330917626639287E-003
          80  2.423188883934442E-003
          81  1.458070495949655E-004
          82  2.971788381944080E-003
          83  1.519566361659647E-004
          84  1.844517375835126E-003
          85  4.996723339813423E-005
          86  7.303354010892904E-004
          87  4.946068333634496E-004
Sym=     2a
Ene=  -0.832312305558067     
Spin= Alpha
Occup=     2.00000000
           1 -3.019460478114894E-002
           2  3.615712586217547E-003
           3  2.396907643116213E-005
           4 -2.173849478649038E-002
           5 -8.722796866982729E-002
           6  1.756036785229712E-002
           7 -6.159988636693685E-003
           8  1.178194046303580E-003
           9 -3.139740227605865E-002
          10 -7.800109710973189E-003
          11 -1.956393551028944E-002
          12  7.308453571218491E-003
          13 -4.334670530042301E-002
          14 -3.628915399652404E-003
          15  1.802794382026617E-002
          16  7.080981343990303E-003
          17 -2.103506289380168E-002
          18  7.121746495514076E-003
          19  1.647358224891461E-003
          20  7.220896666373819E-003
          21  5.935728227308920E-002
          22  5.404139924358702E-002
          23 -3.114551741543916E-002
          24 -1.796523904144801E-002
          25  6.832973037419345E-002
          26  1.154589121688657E-002
          27  1.038814358663427E-004
          28 -5.266545538370779E-002
          29  0.195849159673276     
          30 -2.434606223804288E-002
          31  8.106494023523379E-002
          32 -0.135105517554002     
          33  0.696887005072445     
          34 -9.979309800124949E-003
          35  5.706264189825969E-002
          36  6.616692966869356E-002
          37  0.196362046653742     
          38 -8.687791303070427E-002
          39 -0.129019338803929     
          40  3.505619707844911E-002
          41  6.800250072485796E-002
          42 -2.777098232964654E-003
          43 -5.318350000780261E-002
          44 -9.224321656505836E-003
          45 -8.989993481345422E-003
          46 -6.322454249386345E-003
          47  3.777389667695641E-003
          48  2.282830847996030E-003
          49 -2.082984417670499E-003
          50 -2.015470904321597E-003
          51  7.962669059462944E-004
          52 -8.526421491713554E-004
          53 -1.681572172409556E-003
          54 -1.489088694524112E-003
          55 -1.589923333228679E-004
          56  1.275460876763689E-003
          57 -8.957329256394575E-004
          58 -5.646088971689498E-004
          59  1.259146734796813E-003
          60  4.974789996303003E-004
          61 -6.193002706092104E-003
          62 -4.712644674363438E-003
          63 -5.366909636537160E-003
          64 -3.081463072059828E-003
          65 -5.804886108128280E-003
          66 -5.055568886298176E-003
          67 -6.479579731170916E-003
          68 -9.666437091408121E-003
          69 -4.804786397456591E-003
          70 -3.774991429543144E-003
          71  6.095164471062177E-003
          72  7.764402402896406E-003
          73  1.668613546851878E-002
          74  1.614816922523771E-002
          75  1.641914738538430E-002
          76  1.670852671963126E-002
          77  5.992452602370950E-003
          78  7.587997768913882E-003
          79 -1.104131053272635E-003
          80 -5.341929932423747E-004
          81 -5.070282098770194E-005
          82 -6.324248204979210E-004
          83 -4.976388876719034E-005
          84 -4.949668817953966E-004
          85 -2.773761902232066E-005
          86 -2.251369135642689E-004
          87 -2.307473831068654E-004
Sym=     3a
Ene=  -0.811680898916896     
Spin= Alpha
Occup=     2.00000000
           1 -0.194654483442021     
           2  1.923021290815250E-002
           3  5.572954754887883E-002
           4 -7.923993863611938E-002
           5 -0.119435099051345     
           6  8.729202675104990E-002
           7  0.256178686096052     
           8  0.224059554663234     
           9 -0.179365205122279     
          10 -3.529529921730926E-002
          11 -3.977514198909571E-002
          12  7.945018165399349E-002
          13  0.319570144054200     
          14  7.379478908886944E-002
          15 -3.156601140372419E-002
          16  4.742676581353856E-002
          17  0.291749776781497     
          18  1.661003709680529E-003
          19 -4.657413833643186E-002
          20 -0.100374643713589     
          21  0.216381413911255     
          22 -0.101881697343474     
          23  5.577637257059455E-002
          24  2.205430665895078E-003
          25  3.715151851627974E-002
          26 -2.723401511338668E-002
          27  2.829565518964165E-002
          28 -1.412013730800515E-002
          29 -6.587348605460640E-003
          30 -4.070082377293699E-003
          31  2.794227723774860E-003
          32  7.475924894252564E-003
          33 -2.896383324334554E-002
          34 -4.208403919329828E-003
          35  6.233706090960476E-003
          36  1.304853510003269E-003
          37  4.791418598365228E-004
          38 -6.126853281535661E-003
          39  9.528308073208683E-003
          40  4.685180333149865E-003
          41  5.777703703413156E-002
          42 -4.728507473514760E-002
          43 -9.667304132622970E-003
          44  1.566887614147499E-002
          45  8.177806691043187E-002
          46  5.559750549425855E-002
          47 -1.443083207003061E-002
          48 -4.865748389527491E-003
          49  1.069063104746708E-002
          50  1.145268451205145E-002
          51  4.504664913283686E-005
          52  9.098637483264874E-003
          53  1.581756738936100E-002
          54  1.336951367195020E-002
          55  5.508609181098405E-003
          56 -8.970427209924341E-003
          57  1.960485733471279E-002
          58  8.392029983537714E-003
          59 -1.692996581601672E-002
          60 -5.963043043896161E-003
          61 -4.993882993672920E-002
          62 -5.849851272142900E-002
          63 -2.556732294607091E-002
          64  4.073896546155079E-002
          65 -1.872636533251439E-002
          66 -5.715338062680329E-002
          67 -4.861521422109599E-002
          68  8.447245195227733E-002
          69  6.454444338888127E-002
          70  5.829694836280160E-002
          71  1.196791326832130E-002
          72  4.306228568826170E-003
          73 -1.407722680172294E-003
          74 -1.623615931337764E-003
          75 -7.265470440594064E-004
          76  3.643099128032655E-004
          77  2.127912368874604E-002
          78  7.561133268869673E-003
          79 -2.344474802246246E-003
          80  2.806119937969490E-003
          81  9.236702284776547E-004
          82  9.596269673535237E-004
          83  1.165210379127495E-003
          84  6.649862617954506E-003
          85  1.107148272916862E-003
          86  5.263116299598663E-003
          87  5.341485173144722E-003
Sym=     4a
Ene=  -0.796239939922097     
Spin= Alpha
Occup=     2.00000000
           1 -0.239182162062961     
           2 -1.530929858734297E-002
           3 -6.669256778414587E-002
           4 -7.006919942795944E-002
           5 -1.818663091252145E-002
           6 -7.488309844637071E-002
           7 -0.313727526925822     
           8  0.241268659544265     
           9  0.329885938541925     
          10  6.149077640328064E-002
          11  6.520017297717408E-002
          12  5.223300990623656E-003
          13 -0.147391000405403     
          14  3.220216577629778E-003
          15 -2.022917055985050E-002
          16  9.591798212266044E-002
          17  8.945028380116063E-002
          18  6.286128082036174E-002
          19 -4.721777580164654E-002
          20  1.430738980303330E-002
          21  0.242023963535148     
          22  1.516946044977121E-002
          23 -1.107629921373023E-002
          24  4.134930960146124E-002
          25  0.143228064131914     
          26 -2.866217628206966E-002
          27  4.894493240695360E-002
          28 -4.235477728108245E-002
          29  2.587629288284584E-002
          30 -1.988666591083676E-002
          31  2.290968782772311E-002
          32  3.355104736829724E-002
          33 -0.103949151864434     
          34 -1.219664259683514E-002
          35  9.578326620843172E-003
          36  3.154352799572424E-002
          37 -3.424953476158037E-003
          38 -5.137231186625991E-003
          39  3.229360899127667E-002
          40  2.254227578027461E-002
          41  9.637791632126119E-002
          42 -3.726297830176854E-002
          43 -3.282685293237874E-002
          44  3.377205131193546E-002
          45 -5.644536493546702E-002
          46 -2.584427486366437E-002
          47 -1.157358782266452E-003
          48  2.092025748227291E-002
          49 -2.247378510595473E-002
          50 -1.587056272662840E-002
          51  8.847505039379031E-004
          52 -6.673320547062086E-003
          53 -1.398310210698746E-003
          54 -2.029757372300450E-003
          55 -6.533902754599505E-003
          56  4.479506442957290E-003
          57 -1.624881587409016E-002
          58 -3.835088004589880E-003
          59  1.111900272715041E-002
          60  7.321315837831858E-003
          61 -5.743243158027972E-002
          62 -4.260677778287170E-002
          63 -9.271364008351915E-002
          64  2.930716132425733E-002
          65  0.105055140461525     
          66  9.105537043810678E-002
          67  7.609541947710660E-002
          68 -8.437600060300059E-002
          69  3.311909829658340E-002
          70  1.603448196710127E-002
          71  3.700537058927685E-002
          72  2.982032274038148E-002
          73  6.215700553870283E-003
          74  4.800356936660651E-003
          75  4.486145611432885E-004
          76 -3.632065826728368E-003
          77  1.456033867714388E-002
          78  2.208786518689065E-002
          79 -3.884754626043149E-003
          80 -9.417576244365082E-003
          81 -2.134685834793237E-003
          82  6.225075502056757E-003
          83 -7.258786915919867E-004
          84  1.713845430771141E-003
          85 -1.650278537407503E-003
          86 -5.565691409100122E-003
          87 -2.314644089229581E-003
Sym=     5a
Ene=  -0.793918604174850     
Spin= Alpha
Occup=     2.00000000
           1 -0.236382312803657     
           2 -2.305357727385695E-002
           3 -4.527262454867829E-003
           4 -5.986715142887437E-002
           5  1.181274656188018E-002
           6 -0.113520944067461     
           7 -3.707563328890744E-002
           8  0.260140992319484     
           9  0.162058901299457     
          10  1.080247088150064E-002
          11  5.656936245378890E-002
          12  3.525674111040653E-002
          13  0.156042277996529     