37
 energy: -48.046499542968 gnorm: 0.000656523183 xtb: 6.7.1 (edcfbbe)
N           -1.00291895116151       -1.06438504947551        1.87672943663462
C            0.15904721023459       -0.47089574528548        1.20595498321738
C            1.45427184803435       -1.28317969218156        1.32191497056964
C            2.56954648993015       -0.63297705571088        0.54342504763710
C            3.01803668042690       -1.18253489362948       -0.64984533112360
C            4.03230547245155       -0.57185130405831       -1.36740419024110
C            4.60312192455026        0.59988186401549       -0.90170019022569
C            4.16181482344610        1.15472667328502        0.28803075453449
C            3.15164918555788        0.54086585671309        1.00657083287595
C           -0.25954764041138       -0.31232672970830       -0.27512183037337
N           -1.68684566063344        0.07258701291668       -0.27324453432557
C           -2.49117206966566       -0.48985586588041       -1.37610465350679
C           -3.96643902685568       -0.13749615372898       -1.14963648487051
O           -4.14364799312205        1.25137867308154       -1.07049507320839
C           -3.40448236196145        1.80447572199138       -0.01448741826180
C           -1.90727429364623        1.53264900416778       -0.19935228289078
H           -0.98455100542935       -2.07759904461151        1.79626682810523
H           -1.02463741966881       -0.84238195026772        2.86426732379441
H            0.32277779702527        0.52149923864749        1.63722865607198
H            1.28103995411452       -2.29524123661011        0.94868397945469
H            1.73356656113079       -1.35277752982236        2.37557331533684
H            2.58678513540693       -2.10459499054601       -1.01352717561421
H            4.37969907559755       -1.01573095248132       -2.28758385394315
H            5.39571959627156        1.07439303450232       -1.45851153508024
H            4.61037507989136        2.06243007270955        0.66126043130196
H            2.82488047792030        0.96858302378028        1.94381785695088
H            0.35607953753852        0.42435563099415       -0.78880064617399
H           -0.15429289712094       -1.27128840157734       -0.78541928600875
H           -1.96140313171822       -0.37412716123737        0.67101537992233
H           -2.36549969968468       -1.57221979270862       -1.40857007507527
H           -2.14789448186357       -0.05510100106838       -2.31806280717185
H           -4.56856938445730       -0.47868930584532       -1.99244180049612
H           -4.32660651875705       -0.62577379373302       -0.23067049979509
H           -3.59805465585377        2.87755608011474       -0.03023792023467
H           -3.74069950300801        1.39329382370032        0.95003214369918
H           -1.34120245939416        1.94736492411007        0.63375785024026
H           -1.56497769511759        1.98498701543849       -1.13331220172558
