42
 energy: -49.004916207470 gnorm: 0.000356973629 xtb: 6.7.1 (edcfbbe)
C            3.62983146375428       -2.26724994039405        0.72317418544252
C            2.85451811350377       -0.98938531331653        0.43844531208940
C            1.40948683232790       -1.30041203773753        0.00872152566607
N            0.70469749139773       -0.04626930520915       -0.32338040358525
C           -0.73948240901972       -0.23037058326088       -0.58690605628062
C           -1.45694372994944       -0.08249020331760        0.77785706222529
N           -0.71012417635042        0.96408719351814        1.48487810194661
C           -2.98783764786746        0.14154928096721        0.66189441120777
C           -3.60192282982906       -1.01512921113119       -0.13158683514964
C           -3.33617267075845        1.46666681095013       -0.02065177193890
C           -3.57607128277851        0.14143152155635        2.07812277134506
C            1.44564712391525        0.67666070888284       -1.37370430722443
C            2.89349363179049        0.92892347392369       -0.91157310735649
C            3.70749932106019        1.60402124721760       -2.00569649099685
O            3.51272062077652       -0.29441413898376       -0.59395779418982
H            4.65028564625494       -2.01431619010674        0.99241410727591
H            3.17292861884535       -2.81708927334205        1.54007454928605
H            3.65833489869046       -2.89226127185759       -0.16438282997502
H            2.82219812778086       -0.35767572584651        1.34490359044244
H            1.43067155293785       -1.93845668676990       -0.87867580913959
H            0.88132339432256       -1.81320527891428        0.81180451664610
H            0.60961803785043        0.56066916209394        0.57126082052208
H           -1.06873404962564        0.55540700438846       -1.26690849012322
H           -0.93161326352857       -1.19961698101078       -1.04253446751699
H           -1.31019650756192       -1.01138674128054        1.34090942684675
H           -1.05613569111045        1.88553296966490        1.23427962965943
H           -0.78719733575350        0.86818152827048        2.48946210390405
H           -3.32007856570749       -0.97317672742084       -1.18012841274222
H           -3.29613682284207       -1.97489274580660        0.27777922632808
H           -4.68515487471678       -0.95978947427809       -0.07789587690358
H           -2.95074985103338        2.32397124273912        0.52808505532040
H           -2.97047199418063        1.50914057153725       -1.04365500827244
H           -4.41669629612832        1.57055336783076       -0.05794649083388
H           -3.35460699156170       -0.79197395272640        2.59074181496961
H           -4.65542696036980        0.24935097968543        2.03016267326943
H           -3.18906877558384        0.96661075155182        2.67225236992299
H            1.45824619152129        0.06875714733044       -2.28216042328255
H            0.95182844797375        1.62658700023858       -1.58016122488826
H            2.86486174345488        1.57059551282249       -0.01186703348791
H            4.72590167579176        1.74548308839845       -1.65827506235839
H            3.28125514260852        2.56968174375345       -2.25886555725178
H            3.73547464970225        0.97569947539004       -2.89093365719966
