38
 energy: -49.952928018819 gnorm: 0.000518244816 xtb: 6.7.1 (edcfbbe)
C           -2.95565693029677        1.23527456719252        0.30443246844262
C           -2.59387362388663       -0.06553119390155       -0.41674160739683
C           -2.81847105186851        0.10763137184855       -1.92126498879524
C           -3.50169999415456       -1.18940635389119        0.09754360494943
C           -1.12182196322675       -0.49021154595910       -0.17598990059493
N           -0.73605541062975       -0.67064568874490        1.23065017560079
C           -0.07688694451887        0.50482899067571       -0.74564966562354
N            1.19874991300052        0.20573126823406       -0.05255442008437
C            1.99932132802542       -0.80327001180542       -0.78070189972740
C            3.08211049002285       -1.40202971733060        0.08824461781847
S            4.24750596447896       -0.04091864841565        0.46613968663635
O            5.25850550616196       -0.47869806849419        1.36497656062741
O            4.59048725045017        0.57531279438064       -0.77877331819236
C            3.06982265573629        1.07578166350422        1.31382737259279
C            1.98463219583901        1.40240118582047        0.31189553256456
H           -2.84267269911380        1.15298135421104        1.38389473702563
H           -2.36798510524115        2.07877484938146       -0.04907255817918
H           -3.99915502860143        1.46561669791046        0.11041147724732
H           -2.49967806347166       -0.77641560237322       -2.46782157061406
H           -3.87614145961403        0.25630055834481       -2.11706305866689
H           -2.28553648289908        0.97178577905298       -2.30793135953165
H           -3.27399572926708       -2.13084852148998       -0.39711590980627
H           -3.40199456583601       -1.32575882539132        1.17225923090144
H           -4.54011376213020       -0.94759185783658       -0.10710394215941
H           -0.98171907162135       -1.45735053216584       -0.67152002463746
H           -1.17526955251634        0.03176700789757        1.81885735118670
H           -1.00133910985211       -1.58167906311300        1.58338299858476
H            0.02813479723548        0.41072295385135       -1.82426204211274
H           -0.37519551918448        1.52578009262394       -0.51100990537581
H            0.72943848273919       -0.25865366762978        0.84074527331186
H            1.32297452835083       -1.58199674968155       -1.14077400589786
H            2.48000251193708       -0.32198307591933       -1.63840825977710
H            3.63194117744412       -2.16943596680599       -0.44980886739225
H            2.71892312786659       -1.80798962037598        1.02784736702262
H            2.70698817011944        0.56932627498153        2.20354050465965
H            3.61258204153485        1.97137672087921        1.60361981135215
H            2.45949897272448        1.80687769319647       -0.58749944033697
H            1.30364295425553        2.15214288733851        0.72320280000666
