[Molden Format]
[Title]
[Atoms] AU
C      1     6 -0.55658560934657E+01  0.12840514044211E+01 -0.24446210685586E+01
C      2     6 -0.47919685719360E+01 -0.63304911991673E+00 -0.44060851653869E+00
C      3     6 -0.39583539353363E+01 -0.31265633282449E+01 -0.16115177507780E+01
C      4     6 -0.69372389915134E+01 -0.10774303617792E+01  0.14346786379767E+01
N      5     7 -0.26396524701649E+01  0.43602714449688E+00  0.10802283515911E+01
C      6     6 -0.29136008168284E+00  0.12455923822326E+01 -0.19791953186225E+00
C      7     6  0.18632373341629E+01  0.72320710636782E+00  0.17131337731530E+01
N      8     7  0.11481579187969E+01 -0.16553674391137E+01  0.29479726928948E+01
C      9     6  0.45459483631759E+01  0.78766305031229E+00  0.53568738660655E+00
C     10     6  0.49545335100143E+01 -0.13263231475613E+01 -0.13966408361091E+01
C     11     6  0.64742113152139E+01  0.49001070938236E+00  0.26785703992169E+01
C     12     6  0.49550761674524E+01  0.33488228000297E+01 -0.74707804201162E+00
H     13     1 -0.71933008860253E+01  0.58149576745996E+00 -0.34772823432334E+01
H     14     1 -0.60918782720259E+01  0.30772565208058E+01 -0.15897264415216E+01
H     15     1 -0.40597161480799E+01  0.16128930764295E+01 -0.38004321290632E+01
H     16     1 -0.25200654687046E+01 -0.28663688633599E+01 -0.30530012262844E+01
H     17     1 -0.32467106148208E+01 -0.44114207205020E+01 -0.17436149423412E+00
H     18     1 -0.55673081869257E+01 -0.40236214701412E+01 -0.25151419326974E+01
H     19     1 -0.63725434470484E+01 -0.23917020800000E+01  0.29104081573967E+01
H     20     1 -0.75458666920380E+01  0.68217096679736E+00  0.23065663900742E+01
H     21     1 -0.85581707661402E+01 -0.18796426497494E+01  0.46628744235221E+00
H     22     1 -0.33306383542946E+01  0.18744920639054E+01  0.21681607157449E+01
H     23     1 -0.17812344476353E+01 -0.96921818862214E+00  0.23218060330878E+01
H     24     1 -0.23103657299608E-01  0.89707284398057E-01 -0.18770145785743E+01
H     25     1 -0.36281317722018E+00  0.32267060888970E+01 -0.73826306332560E+00
H     26     1  0.17929139384341E+01  0.21982737567885E+01  0.31664011612857E+01
H     27     1  0.17595234187866E+01 -0.31599560507863E+01  0.19256366621451E+01
H     28     1  0.18909694655948E+01 -0.17977620889502E+01  0.47042571327923E+01
H     29     1  0.36720886076755E+01 -0.11722825898720E+01 -0.29943810410263E+01
H     30     1  0.47546317946264E+01 -0.31936829582197E+01 -0.55777105552703E+00
H     31     1  0.68668670455761E+01 -0.11966551344330E+01 -0.21306701015733E+01
H     32     1  0.62347890629786E+01  0.19646784173878E+01  0.40902688135773E+01
H     33     1  0.83793405043823E+01  0.63330003501966E+00  0.19301870020494E+01
H     34     1  0.63036611808076E+01 -0.13399258822864E+01  0.36001872515093E+01
H     35     1  0.69184886648662E+01  0.35286048840753E+01 -0.13167165331998E+01
H     36     1  0.37960049815155E+01  0.35424556970524E+01 -0.24310803972202E+01
H     37     1  0.45273369882981E+01  0.48935629172725E+01  0.53835348081026E+00
[GTO]
           1 0
 s           4   1.00000000000000     
   51.0493630955799      -0.163120632101274     
   8.79112274068875      -0.199110245810007     
  0.706404222589298       0.318820477536558     
  0.269228134134116       0.127065041842404     
 p           4   1.00000000000000     
   5.82636561408000       0.737164515452096     
   1.51068960187200       0.682163716148503     
  0.532564832880000       0.357830539292537     
  0.212023236906000       5.398303027584788E-002
 
           2 0
 s           4   1.00000000000000     
   51.0493630955799      -0.163120632101274     
   8.79112274068875      -0.199110245810007     
  0.706404222589298       0.318820477536558     
  0.269228134134116       0.127065041842404     
 p           4   1.00000000000000     
   5.82636561408000       0.737164515452096     
   1.51068960187200       0.682163716148503     
  0.532564832880000       0.357830539292537     
  0.212023236906000       5.398303027584788E-002
 
           3 0
 s           4   1.00000000000000     
   51.0493630955799      -0.163120632101274     
   8.79112274068875      -0.199110245810007     
  0.706404222589298       0.318820477536558     
  0.269228134134116       0.127065041842404     
 p           4   1.00000000000000     
   5.82636561408000       0.737164515452096     
   1.51068960187200       0.682163716148503     
  0.532564832880000       0.357830539292537     
  0.212023236906000       5.398303027584788E-002
 
           4 0
 s           4   1.00000000000000     
   51.0493630955799      -0.163120632101274     
   8.79112274068875      -0.199110245810007     
  0.706404222589298       0.318820477536558     
  0.269228134134116       0.127065041842404     
 p           4   1.00000000000000     
   5.82636561408000       0.737164515452096     
   1.51068960187200       0.682163716148503     
  0.532564832880000       0.357830539292537     
  0.212023236906000       5.398303027584788E-002
 
           5 0
 s           4   1.00000000000000     
   63.5940244669410      -0.192343884147216     
   10.9514172315237      -0.234781079249537     
  0.879993102573770       0.375937539017009     
  0.335387152965211       0.149828892718628     
 p           4   1.00000000000000     
   7.29650404814951       0.976586663156674     
   1.89187454507126       0.903722267303458     
  0.666944321108241       0.474049584615364     
  0.265522026741309       7.151606771501186E-002
 
           6 0
 s           4   1.00000000000000     
   51.0493630955799      -0.163120632101274     
   8.79112274068875      -0.199110245810007     
  0.706404222589298       0.318820477536558     
  0.269228134134116       0.127065041842404     
 p           4   1.00000000000000     
   5.82636561408000       0.737164515452096     
   1.51068960187200       0.682163716148503     
  0.532564832880000       0.357830539292537     
  0.212023236906000       5.398303027584788E-002
 
           7 0
 s           4   1.00000000000000     
   51.0493630955799      -0.163120632101274     
   8.79112274068875      -0.199110245810007     
  0.706404222589298       0.318820477536558     
  0.269228134134116       0.127065041842404     
 p           4   1.00000000000000     
   5.82636561408000       0.737164515452096     
   1.51068960187200       0.682163716148503     
  0.532564832880000       0.357830539292537     
  0.212023236906000       5.398303027584788E-002
 
           8 0
 s           4   1.00000000000000     
   63.5940244669410      -0.192343884147216     
   10.9514172315237      -0.234781079249537     
  0.879993102573770       0.375937539017009     
  0.335387152965211       0.149828892718628     
 p           4   1.00000000000000     
   7.29650404814951       0.976586663156674     
   1.89187454507126       0.903722267303458     
  0.666944321108241       0.474049584615364     
  0.265522026741309       7.151606771501186E-002
 
           9 0
 s           4   1.00000000000000     
   51.0493630955799      -0.163120632101274     
   8.79112274068875      -0.199110245810007     
  0.706404222589298       0.318820477536558     
  0.269228134134116       0.127065041842404     
 p           4   1.00000000000000     
   5.82636561408000       0.737164515452096     
   1.51068960187200       0.682163716148503     
  0.532564832880000       0.357830539292537     
  0.212023236906000       5.398303027584788E-002
 
          10 0
 s           4   1.00000000000000     
   51.0493630955799      -0.163120632101274     
   8.79112274068875      -0.199110245810007     
  0.706404222589298       0.318820477536558     
  0.269228134134116       0.127065041842404     
 p           4   1.00000000000000     
   5.82636561408000       0.737164515452096     
   1.51068960187200       0.682163716148503     
  0.532564832880000       0.357830539292537     
  0.212023236906000       5.398303027584788E-002
 
          11 0
 s           4   1.00000000000000     
   51.0493630955799      -0.163120632101274     
   8.79112274068875      -0.199110245810007     
  0.706404222589298       0.318820477536558     
  0.269228134134116       0.127065041842404     
 p           4   1.00000000000000     
   5.82636561408000       0.737164515452096     
   1.51068960187200       0.682163716148503     
  0.532564832880000       0.357830539292537     
  0.212023236906000       5.398303027584788E-002
 
          12 0
 s           4   1.00000000000000     
   51.0493630955799      -0.163120632101274     
   8.79112274068875      -0.199110245810007     
  0.706404222589298       0.318820477536558     
  0.269228134134116       0.127065041842404     
 p           4   1.00000000000000     
   5.82636561408000       0.737164515452096     
   1.51068960187200       0.682163716148503     
  0.532564832880000       0.357830539292537     
  0.212023236906000       5.398303027584788E-002
 
          13 0
 s           3   1.00000000000000     
   3.37022769753360       0.273591105889083     
  0.613891182214980       0.264605406538605     
  0.166142911484160       8.246594753408230E-002
 
          14 0
 s           3   1.00000000000000     
   3.37022769753360       0.273591105889083     
  0.613891182214980       0.264605406538605     
  0.166142911484160       8.246594753408230E-002
 
          15 0
 s           3   1.00000000000000     
   3.37022769753360       0.273591105889083     
  0.613891182214980       0.264605406538605     
  0.166142911484160       8.246594753408230E-002
 
          16 0
 s           3   1.00000000000000     
   3.37022769753360       0.273591105889083     
  0.613891182214980       0.264605406538605     
  0.166142911484160       8.246594753408230E-002
 
          17 0
 s           3   1.00000000000000     
   3.37022769753360       0.273591105889083     
  0.613891182214980       0.264605406538605     
  0.166142911484160       8.246594753408230E-002
 
          18 0
 s           3   1.00000000000000     
   3.37022769753360       0.273591105889083     
  0.613891182214980       0.264605406538605     
  0.166142911484160       8.246594753408230E-002
 
          19 0
 s           3   1.00000000000000     
   3.37022769753360       0.273591105889083     
  0.613891182214980       0.264605406538605     
  0.166142911484160       8.246594753408230E-002
 
          20 0
 s           3   1.00000000000000     
   3.37022769753360       0.273591105889083     
  0.613891182214980       0.264605406538605     
  0.166142911484160       8.246594753408230E-002
 
          21 0
 s           3   1.00000000000000     
   3.37022769753360       0.273591105889083     
  0.613891182214980       0.264605406538605     
  0.166142911484160       8.246594753408230E-002
 
          22 0
 s           3   1.00000000000000     
   3.37022769753360       0.273591105889083     
  0.613891182214980       0.264605406538605     
  0.166142911484160       8.246594753408230E-002
 
          23 0
 s           3   1.00000000000000     
   3.37022769753360       0.273591105889083     
  0.613891182214980       0.264605406538605     
  0.166142911484160       8.246594753408230E-002
 
          24 0
 s           3   1.00000000000000     
   3.37022769753360       0.273591105889083     
  0.613891182214980       0.264605406538605     
  0.166142911484160       8.246594753408230E-002
 
          25 0
 s           3   1.00000000000000     
   3.37022769753360       0.273591105889083     
  0.613891182214980       0.264605406538605     
  0.166142911484160       8.246594753408230E-002
 
          26 0
 s           3   1.00000000000000     
   3.37022769753360       0.273591105889083     
  0.613891182214980       0.264605406538605     
  0.166142911484160       8.246594753408230E-002
 
          27 0
 s           3   1.00000000000000     
   3.37022769753360       0.273591105889083     
  0.613891182214980       0.264605406538605     
  0.166142911484160       8.246594753408230E-002
 
          28 0
 s           3   1.00000000000000     
   3.37022769753360       0.273591105889083     
  0.613891182214980       0.264605406538605     
  0.166142911484160       8.246594753408230E-002
 
          29 0
 s           3   1.00000000000000     
   3.37022769753360       0.273591105889083     
  0.613891182214980       0.264605406538605     
  0.166142911484160       8.246594753408230E-002
 
          30 0
 s           3   1.00000000000000     
   3.37022769753360       0.273591105889083     
  0.613891182214980       0.264605406538605     
  0.166142911484160       8.246594753408230E-002
 
          31 0
 s           3   1.00000000000000     
   3.37022769753360       0.273591105889083     
  0.613891182214980       0.264605406538605     
  0.166142911484160       8.246594753408230E-002
 
          32 0
 s           3   1.00000000000000     
   3.37022769753360       0.273591105889083     
  0.613891182214980       0.264605406538605     
  0.166142911484160       8.246594753408230E-002
 
          33 0
 s           3   1.00000000000000     
   3.37022769753360       0.273591105889083     
  0.613891182214980       0.264605406538605     
  0.166142911484160       8.246594753408230E-002
 
          34 0
 s           3   1.00000000000000     
   3.37022769753360       0.273591105889083     
  0.613891182214980       0.264605406538605     
  0.166142911484160       8.246594753408230E-002
 
          35 0
 s           3   1.00000000000000     
   3.37022769753360       0.273591105889083     
  0.613891182214980       0.264605406538605     
  0.166142911484160       8.246594753408230E-002
 
          36 0
 s           3   1.00000000000000     
   3.37022769753360       0.273591105889083     
  0.613891182214980       0.264605406538605     
  0.166142911484160       8.246594753408230E-002
 
          37 0
 s           3   1.00000000000000     
   3.37022769753360       0.273591105889083     
  0.613891182214980       0.264605406538605     
  0.166142911484160       8.246594753408230E-002
 
[MO]
Sym=     1a
Ene=  -0.841423902908612     
Spin= Alpha
Occup=     2.00000000
           1  4.423838838969885E-002
           2  2.408926733837660E-002
           3 -1.776614261177543E-002
           4  3.236602479477012E-002
           5  0.201232473772929     
           6  9.887030707477497E-002
           7  4.620857525526233E-002
           8  4.963767260444794E-002
           9  4.451954433708712E-002
          10  4.046265283217608E-003
          11  3.781879580900634E-002
          12  2.154993029235917E-002
          13  3.661012772496679E-002
          14  3.452329777555573E-002
          15  1.035125189473937E-002
          16 -1.437193316325172E-002
          17  0.538422872896521     
          18  6.626301754039145E-002
          19  1.174130419120597E-002
          20 -9.659166962088751E-002
          21  0.280142166931867     
          22 -0.117712394807427     
          23 -5.598650549931398E-002
          24  8.121366687727828E-002
          25  0.104540994224320     
          26 -6.888947916099916E-002
          27 -1.103945285311050E-002
          28 -1.999450239668873E-002
          29  5.450423002258780E-002
          30 -2.407325744525698E-002
          31  4.321185020242230E-002
          32 -3.424889057344412E-002
          33  7.676431949035684E-003
          34 -1.251182054379611E-002
          35 -1.211259773414517E-003
          36  1.860184004139316E-003
          37  1.586922850106524E-003
          38 -2.160058785457839E-003
          39  9.105522601669199E-004
          40  1.278695192876461E-003
          41 -5.054315476735936E-004
          42 -9.231455526699754E-004
          43 -3.349995324883044E-005
          44 -2.169391002457921E-004
          45  5.098509474479425E-004
          46 -1.566349874585873E-003
          47 -1.041853652405367E-003
          48  7.031747891730565E-004
          49  3.074790872225410E-003
          50  9.107677251869428E-003
          51  1.016356222044936E-002
          52  1.005896135315408E-002
          53  9.619321161656627E-003
          54  3.140051931872167E-003
          55  7.069118905899494E-003
          56  7.611222580404840E-003
          57  2.558080636295192E-003
          58  0.129189943852387     
          59  0.127226313632241     
          60  5.600093744084209E-002
          61  5.187927240804946E-002
          62  2.098255928347591E-002
          63  5.100169335042385E-003
          64 -9.201980371186592E-004
          65  1.187444678656447E-003
          66  3.699588829956622E-004
          67 -2.763608232126731E-005
          68  2.275675952629149E-005
          69  1.049241831625194E-005
          70 -6.221036243790765E-005
          71 -3.119961354534239E-005
          72  3.328825336596947E-004
          73  1.259627561353962E-004
Sym=     2a
Ene=  -0.820015886385547     
Spin= Alpha
Occup=     2.00000000
           1  0.100519271219017     
           2  2.692075837370094E-002
           3 -4.483420546412200E-002
           4  6.380167752412806E-002
           5  0.378465862905368     
           6  4.596949194629451E-002
           7  3.880298883934073E-002
           8  7.406251846210786E-002
           9  9.414428656290956E-002
          10 -1.586748968874827E-002
          11  6.659776580518606E-002
          12  3.885622036196010E-002
          13  0.128745071492056     
          14  8.244760335200912E-002
          15  2.353910603479564E-002
          16 -4.529500860594730E-002
          17  9.675808531557839E-002
          18 -0.364846170416948     
          19 -0.106308253685116     
          20 -6.929750281410997E-002
          21 -0.271170100181778     
          22 -2.183973640483070E-002
          23  2.658331601943418E-002
          24 -9.849125920314444E-002
          25 -0.227769006540904     
          26  8.549762042857532E-002
          27  2.243598824159486E-002
          28  2.718814944426206E-002
          29 -0.118341564888171     
          30  8.710889365180500E-003
          31 -8.437175032690619E-002
          32  5.746573494028311E-002
          33 -4.320480459653330E-002
          34  3.663666645133206E-002
          35  2.977057986987780E-003
          36 -8.349333720273550E-003
          37 -9.660239854581195E-003
          38  7.007734192796129E-003
          39 -5.108906129720042E-003
          40 -6.336974416691218E-003
          41 -4.861973678427894E-003
          42  7.007535935748112E-003
          43 -1.056330982059425E-004
          44  2.806609856242224E-003
          45 -8.129158934696646E-003
          46  6.583227557578301E-003
          47  6.375083050612291E-003
          48 -3.921554258318322E-003
          49  1.418453438266769E-002
          50  2.213457800599134E-002
          51  1.634007396913412E-002
          52  1.430813801214818E-002
          53  1.928006862797827E-002
          54  1.400961571793514E-002
          55  2.775827085876945E-002
          56  2.920745434491674E-002
          57  1.701026316556028E-002
          58  3.430679010972797E-002
          59 -2.877296115629748E-002
          60 -5.113130009167192E-002
          61 -5.960573598833109E-002
          62 -5.351915653051956E-002
          63 -1.740582485783161E-002
          64 -1.001951245241189E-002
          65 -3.805607570515988E-003
          66 -2.479394260360028E-003
          67 -3.534236650016253E-004
          68 -1.129776797533948E-003
          69 -1.752380961898861E-004
          70 -1.252611574886603E-003
          71 -2.282362400561189E-004
          72 -3.033143605717987E-003
          73 -1.919207443689458E-003
Sym=     3a
Ene=  -0.788356941093763     
Spin= Alpha
Occup=     2.00000000
           1  7.813690463392899E-002
           2  4.296447405642610E-003
           3 -4.413860124110994E-002
           4  3.133996388457286E-002
           5  0.227294153469250     
           6 -3.900545163748950E-002
           7 -5.557537808130824E-002
           8 -1.410666666132442E-002
           9  0.124589048419710     
          10 -2.233578342658757E-002
          11  5.533483299088109E-002
          12  3.037829921722527E-002
          13  0.113049201226121     
          14  4.688319013197553E-002
          15  1.439179861751908E-003
          16 -4.472262901049641E-002
          17 -0.198498424492846     
          18 -9.292134106949203E-002
          19 -0.159509136498076     
          20 -2.684228525234270E-002
          21 -2.370011813048482E-002
          22  0.168971487091754     
          23 -4.055769972734061E-002
          24  7.932209154804783E-003
          25  0.375118212182220     
          26  2.629398397802326E-002
          27 -9.587137220087297E-002
          28  2.054561096329542E-002
          29  0.296380838429017     
          30  6.374696379441912E-002
          31  0.128266516979735     
          32 -8.039643611641573E-002
          33  0.186687067302732     
          34 -7.752287113884104E-002
          35 -1.796876311149468E-002
          36  3.541940679929777E-002
          37  5.535962859079352E-002
          38 -2.043309969382375E-002
          39  2.348069569323745E-002
          40  3.149222348687651E-002
          41  5.128059338230121E-002
          42 -3.852725752340967E-002
          43  7.791856741496313E-006
          44 -2.040282662707907E-002
          45  4.100094416970444E-002
          46 -1.526104639306663E-002
          47 -2.937865955311631E-002
          48  1.774447808781860E-002
          49  2.138636674453916E-002
          50  1.269700468505291E-002
          51  1.352392470126232E-002
          52  2.709268060021220E-002
          53  3.147791379652883E-002
          54  2.934074709155033E-002
          55  2.794553707502491E-002
          56  2.147026668988440E-002
          57  2.709988089985788E-002
          58 -0.107908716417213     
          59 -5.293617396635362E-003
          60  1.480572925643893E-002
          61 -2.600763494085608E-002
          62  9.261498440957813E-002
          63  7.225084568010372E-002
          64  6.364312613358185E-002
          65  1.390648706420422E-002
          66  1.686206460259492E-002
          67  6.040222002178054E-003
          68  1.164958449612275E-002
          69  5.088675377421831E-003
          70  1.469728850397182E-002
          71  4.400416268661059E-003
          72  9.397370784617746E-003
          73  9.569367576205152E-003
Sym=     4a
Ene=  -0.777681446988850     
Spin= Alpha
Occup=     2.00000000
           1 -0.150022282721285     
           2 -3.802690438223634E-002
           3  5.018154519083544E-002
           4 -2.713525057560995E-002
           5 -0.149812563137574     
           6 -2.211123081948522E-002
           7  1.567967453170932E-002
           8  0.169903158577310     
           9 -0.142388881518205     
          10  6.564960821941102E-003
          11 -6.520798993731923E-002
          12  3.642976960186623E-004
          13  3.919390590642929E-002
          14  1.941257353488093E-002
          15  1.317504004905021E-002
          16  3.484874692519841E-002
          17  0.202018838161995     
          18 -0.145850406461153     
          19 -1.683443225658650E-002
          20  0.364103249852572     
          21 -0.295153668831846     
          22  4.465422478188037E-002
          23  3.848846047119645E-003
          24  9.416893503615015E-002
          25  6.542636257096912E-002
          26  1.769399476720990E-002
          27 -6.891553645862293E-002
          28  9.414762396684512E-002
          29  0.189256133783360     
          30 -7.452462868687969E-004
          31  5.319093051101188E-002
          32 -1.053401477401974E-002
          33  1.373242413289016E-002
          34 -6.341196552002247E-004
          35 -1.170135887484576E-002
          36  2.146022211299801E-002
          37 -3.788378755041101E-004
          38  2.161394297901411E-003
          39 -1.722191374253058E-003
          40  5.837097975437432E-003
          41  1.518224121546902E-002
          42 -9.399912567752841E-003
          43 -1.565265643738141E-003
          44 -2.036155078212960E-003
          45 -9.114113619059781E-003
          46  5.413458613005315E-003
          47  1.509891630524625E-003
          48  1.800776624136101E-003
          49 -3.561727353744188E-002
          50 -2.832141455652891E-002
          51 -5.595471115751513E-002
          52 -5.444523739569137E-002
          53 -2.400681893115720E-002
          54 -3.476625975591327E-002
          55  2.403661237074614E-002
          56  2.413307987939974E-002
          57 -2.639999912562921E-003
          58  0.196411897916993     
          59  0.154678253961763     
          60 -0.140960449985629     
          61 -0.111943956455964     
          62  2.759734921125722E-002
          63  3.843600947795520E-002
          64  5.071328145066663E-002
          65 -7.709318253265689E-003
          66  3.191105277519262E-003
          67  6.977031656725114E-005
          68  3.993992573189980E-003
          69  1.463118111344479E-003
          70  6.234986370228950E-003
          71 -6.775696346806792E-004
          72 -8.104237444541730E-003
          73 -1.980685871076508E-003
Sym=     5a
Ene=  -0.762473220512919     
Spin= Alpha
Occup=     2.00000000
           1  0.115398241461580     
           2  6.259241220380909E-003
           3  1.266816129751769E-002
           4  4.432689700498472E-002
           5 -1.705332900151356E-002
           6 -7.990845757906906E-002
           7  0.183114723956577     
           8  2.395734882314678E-002
           9 -0.205084854501496     
          10 -1.020456220961318E-002
          11 -3.711830527198332E-002
          12 -3.854655494996159E-002
          13  4.147771099578342E-002
          14 -2.223181901226941E-003
          15  4.623801968324322E-002
          16 -1.007609576370868E-003
          17  1.699056057499381E-002
          18 -0.170738630316931     
          19  0.300268518045904     
          20  5.388138126717401E-003
          21  6.604472206044186E-002
          22  3.725453958247298E-002
          23  0.126984894936198     
          24 -1.844853660247574E-002
          25  0.120675372959502     
          26  0.122549002515220     
          27  9.088233265605206E-002
          28 -6.554846562583094E-002
          29 -0.162693980985798     
          30  6.410834601770454E-002
          31 -5.128778381792200E-003
          32  1.940384225096492E-002
          33  0.288676791881743     
          34 -3.146618943463515E-002
          35  1.425450560288824E-002
          36  8.041291160679828E-003
          37  0.104450479158486     
          38 -1.491297826767212E-002
          39  4.892351675954854E-002
          40  4.330912687032421E-002
          41  0.103128293366757     
          42 -5.038442823041937E-002
          43  8.498730885881642E-003
          44 -4.557787630583073E-002
          45  0.122404226907154     
          46 -2.345107516981166E-002
          47 -6.142624808925096E-002
          48  3.416503797805558E-002
          49  2.347459521772536E-002
          50  5.510779530345117E-002
          51  2.849686379360932E-002
          52 -6.236865209378148E-002
          53 -7.723085974276474E-002
          54 -4.878660172894452E-002
          55 -3.275865423619591E-003
          56  3.677937774345993E-002
          57  6.484591164260494E-003
          58  0.165320628816943     
          59 -0.151350965461269     
          60 -2.990360033651742E-003
          61  8.889605991723468E-002
          62  5.519238798210150E-002
          63 -4.187307712150957E-002
          64 -2.999223515579912E-002
          65  2.527554826266952E-002
          66  2.170285003529156E-002
          67  2.150426803424016E-002
          68  2.515483556685670E-002
          69  1.948963087206177E-002
          70  2.215876129382142E-002
          71  2.202669241667931E-002
          72  3.257654264545293E-002
          73  3.114109581716881E-002
Sym=     6a
Ene=  -0.752447161222925     
Spin= Alpha
Occup=     2.00000000
           1  0.266312492695654     
           2  4.583313177147553E-003
           3 -2.224137593452407E-002
           4  5.278842411700080E-002
           5  5.215791259331903E-002
           6 -0.147318171097982     
           7  0.149633011587991     
           8 -9.429763027423251E-002
           9 -0.127798883598975     
          10 -3.116773334851304E-002
          11 -3.845077097083684E-003
          12 -4.207153694688691E-002
          13  6.581529378658546E-002
          14 -1.589444148454513E-002
          15  4.003547134089645E-002
          16 -3.442582337736362E-002
          17 -9.630706975775265E-002
          18 -1.027719861179661E-002
          19  0.234754537076077     
          20 -1.147059211451086E-002
          21  1.372622956653200E-002
          22 -3.303523777658235E-002
          23  5.629689325645211E-002
          24  3.330139315704045E-002
          25  2.384911522206558E-002
          26 -0.113982639138317     
          27 -7.635273354271432E-002
          28  0.106923790286736     
          29  0.255132364366597     
          30  3.854195781965006E-002
          31  4.639740681336642E-002
          32  9.865855178274676E-003
          33 -0.299884832988155     
          34 -1.171145664099134E-002
          35 -1.221915770257601E-002
          36  2.484489760572523E-002
          37 -0.143683309856899     
          38  1.309514316007470E-002
          39 -5.909880837843966E-002
          40 -4.636590623135991E-002
          41 -0.116356911393449     
          42  4.382410889796000E-002
          43 -9.863604953520871E-003
          44  5.666678678827632E-002
          45 -0.147173323998238     
          46  1.504591818466761E-002
          47  7.155873435778733E-002
          48 -3.328189083284630E-002
          49  7.865610439811377E-002
          50  9.513940204546933E-002
          51  7.499548146491357E-002
          52 -4.150574754567472E-002
          53 -6.436658595903041E-002
          54 -2.207946009466231E-002
          55 -5.409723862850632E-003
          56  3.756478847143380E-002