[Molden Format]
[Title]
[Atoms] AU
C      1     6  0.77035497017624E+01  0.30194304639403E+00  0.21801093552794E+01
N      2     7  0.55136289155272E+01 -0.12850661695013E+01  0.27906023540296E+01
C      3     6  0.58116723207632E+01 -0.24972918159855E+01  0.52623221819800E+01
C      4     6  0.30830590973106E+01  0.61074601662699E-01  0.24647380267554E+01
C      5     6  0.22551420638353E+01 -0.39096817237270E+00 -0.30981769719295E+00
N      6     7  0.30968113560667E+01 -0.29742803065970E+01 -0.87878097713985E+00
C      7     6 -0.57514556633343E+00  0.16060674904039E+00 -0.83363684985671E+00
C      8     6 -0.11724058721866E+01  0.29020419194616E+01 -0.10303339749825E+00
C      9     6 -0.39151684962725E+01  0.35315972726223E+01 -0.76798445246840E+00
C     10     6 -0.43345926847052E+01  0.32027393843427E+01 -0.36032173447010E+01
C     11     6 -0.37826841247492E+01  0.46627802170839E+00 -0.43308446502025E+01
C     12     6 -0.10415209287389E+01 -0.16978823668417E+00 -0.36813993596196E+01
C     13     6 -0.55429974797365E+01 -0.13042377765287E+01 -0.28840384666060E+01
C     14     6 -0.51111713606670E+01 -0.96303122205661E+00 -0.51295323847740E-01
C     15     6 -0.23651491640013E+01 -0.16029915545635E+01  0.60877564220785E+00
C     16     6 -0.56765296440617E+01  0.17686396177300E+01  0.68784824862627E+00
H     17     1  0.79238939445450E+01  0.17832029958701E+01  0.35935794605938E+01
H     18     1  0.74571663274183E+01  0.11691132005788E+01  0.33436776772111E+00
H     19     1  0.94132720257014E+01 -0.83988529193810E+00  0.21466345960954E+01
H     20     1  0.52115238866297E+01 -0.26761399121682E+01  0.12840698929150E+01
H     21     1  0.42538592586432E+01 -0.37914863024443E+01  0.56132335015522E+01
H     22     1  0.58557593624779E+01 -0.10776769137919E+01  0.67536547920368E+01
H     23     1  0.75715373072660E+01 -0.35603965180098E+01  0.53118513223694E+01
H     24     1  0.32873806171285E+01  0.20634937705365E+01  0.28845839185352E+01
H     25     1  0.16972813157205E+01 -0.75803732956389E+00  0.37488672803972E+01
H     26     1  0.33522981842758E+01  0.88097089059385E+00 -0.15225375722413E+01
H     27     1  0.17540995231198E+01 -0.42552721282852E+01 -0.38866098686808E+00
H     28     1  0.34849130664049E+01 -0.32122732965758E+01 -0.27360133202925E+01
H     29     1 -0.90103895777690E+00  0.31746045522510E+01  0.19239872159688E+01
H     30     1  0.97928676715715E-01  0.41856768425376E+01 -0.11029774905157E+01
H     31     1 -0.42990421555897E+01  0.54913985770417E+01 -0.23325742875938E+00
H     32     1 -0.30993461010119E+01  0.44780800230821E+01 -0.46545489628558E+01
H     33     1 -0.62820399842853E+01  0.36754327028486E+01 -0.40817999734900E+01
H     34     1 -0.40647028921772E+01  0.21759211779700E+00 -0.63638439047229E+01
H     35     1  0.22491450328488E+00  0.10691796412750E+01 -0.47429526906833E+01
H     36     1 -0.65363037784811E+00 -0.21183315611686E+01 -0.42470487157840E+01
H     37     1 -0.75039552569946E+01 -0.87233605353530E+00 -0.33451182692652E+01
H     38     1 -0.51872176453828E+01 -0.32632299664600E+01 -0.34296604408851E+01
H     39     1 -0.63592085732506E+01 -0.22364116059062E+01  0.99713211585705E+00
H     40     1 -0.20145039096194E+01 -0.35783448179972E+01  0.11156556381854E+00
H     41     1 -0.21120485341807E+01 -0.13972653858093E+01  0.26475198063235E+01
H     42     1 -0.54177581737649E+01  0.20251106008739E+01  0.27196219052950E+01
H     43     1 -0.76378335712653E+01  0.22159658096927E+01  0.24337096131903E+00
[GTO]
           1 0
 s           4   1.00000000000000     
   51.0493630955799      -0.163120632101274     
   8.79112274068875      -0.199110245810007     
  0.706404222589298       0.318820477536558     
  0.269228134134116       0.127065041842404     
 p           4   1.00000000000000     
   5.82636561408000       0.737164515452096     
   1.51068960187200       0.682163716148503     
  0.532564832880000       0.357830539292537     
  0.212023236906000       5.398303027584788E-002
 
           2 0
 s           4   1.00000000000000     
   63.5940244669410      -0.192343884147216     
   10.9514172315237      -0.234781079249537     
  0.879993102573770       0.375937539017009     
  0.335387152965211       0.149828892718628     
 p           4   1.00000000000000     
   7.29650404814951       0.976586663156674     
   1.89187454507126       0.903722267303458     
  0.666944321108241       0.474049584615364     
  0.265522026741309       7.151606771501186E-002
 
           3 0
 s           4   1.00000000000000     
   51.0493630955799      -0.163120632101274     
   8.79112274068875      -0.199110245810007     
  0.706404222589298       0.318820477536558     
  0.269228134134116       0.127065041842404     
 p           4   1.00000000000000     
   5.82636561408000       0.737164515452096     
   1.51068960187200       0.682163716148503     
  0.532564832880000       0.357830539292537     
  0.212023236906000       5.398303027584788E-002
 
           4 0
 s           4   1.00000000000000     
   51.0493630955799      -0.163120632101274     
   8.79112274068875      -0.199110245810007     
  0.706404222589298       0.318820477536558     
  0.269228134134116       0.127065041842404     
 p           4   1.00000000000000     
   5.82636561408000       0.737164515452096     
   1.51068960187200       0.682163716148503     
  0.532564832880000       0.357830539292537     
  0.212023236906000       5.398303027584788E-002
 
           5 0
 s           4   1.00000000000000     
   51.0493630955799      -0.163120632101274     
   8.79112274068875      -0.199110245810007     
  0.706404222589298       0.318820477536558     
  0.269228134134116       0.127065041842404     
 p           4   1.00000000000000     
   5.82636561408000       0.737164515452096     
   1.51068960187200       0.682163716148503     
  0.532564832880000       0.357830539292537     
  0.212023236906000       5.398303027584788E-002
 
           6 0
 s           4   1.00000000000000     
   63.5940244669410      -0.192343884147216     
   10.9514172315237      -0.234781079249537     
  0.879993102573770       0.375937539017009     
  0.335387152965211       0.149828892718628     
 p           4   1.00000000000000     
   7.29650404814951       0.976586663156674     
   1.89187454507126       0.903722267303458     
  0.666944321108241       0.474049584615364     
  0.265522026741309       7.151606771501186E-002
 
           7 0
 s           4   1.00000000000000     
   51.0493630955799      -0.163120632101274     
   8.79112274068875      -0.199110245810007     
  0.706404222589298       0.318820477536558     
  0.269228134134116       0.127065041842404     
 p           4   1.00000000000000     
   5.82636561408000       0.737164515452096     
   1.51068960187200       0.682163716148503     
  0.532564832880000       0.357830539292537     
  0.212023236906000       5.398303027584788E-002
 
           8 0
 s           4   1.00000000000000     
   51.0493630955799      -0.163120632101274     
   8.79112274068875      -0.199110245810007     
  0.706404222589298       0.318820477536558     
  0.269228134134116       0.127065041842404     
 p           4   1.00000000000000     
   5.82636561408000       0.737164515452096     
   1.51068960187200       0.682163716148503     
  0.532564832880000       0.357830539292537     
  0.212023236906000       5.398303027584788E-002
 
           9 0
 s           4   1.00000000000000     
   51.0493630955799      -0.163120632101274     
   8.79112274068875      -0.199110245810007     
  0.706404222589298       0.318820477536558     
  0.269228134134116       0.127065041842404     
 p           4   1.00000000000000     
   5.82636561408000       0.737164515452096     
   1.51068960187200       0.682163716148503     
  0.532564832880000       0.357830539292537     
  0.212023236906000       5.398303027584788E-002
 
          10 0
 s           4   1.00000000000000     
   51.0493630955799      -0.163120632101274     
   8.79112274068875      -0.199110245810007     
  0.706404222589298       0.318820477536558     
  0.269228134134116       0.127065041842404     
 p           4   1.00000000000000     
   5.82636561408000       0.737164515452096     
   1.51068960187200       0.682163716148503     
  0.532564832880000       0.357830539292537     
  0.212023236906000       5.398303027584788E-002
 
          11 0
 s           4   1.00000000000000     
   51.0493630955799      -0.163120632101274     
   8.79112274068875      -0.199110245810007     
  0.706404222589298       0.318820477536558     
  0.269228134134116       0.127065041842404     
 p           4   1.00000000000000     
   5.82636561408000       0.737164515452096     
   1.51068960187200       0.682163716148503     
  0.532564832880000       0.357830539292537     
  0.212023236906000       5.398303027584788E-002
 
          12 0
 s           4   1.00000000000000     
   51.0493630955799      -0.163120632101274     
   8.79112274068875      -0.199110245810007     
  0.706404222589298       0.318820477536558     
  0.269228134134116       0.127065041842404     
 p           4   1.00000000000000     
   5.82636561408000       0.737164515452096     
   1.51068960187200       0.682163716148503     
  0.532564832880000       0.357830539292537     
  0.212023236906000       5.398303027584788E-002
 
          13 0
 s           4   1.00000000000000     
   51.0493630955799      -0.163120632101274     
   8.79112274068875      -0.199110245810007     
  0.706404222589298       0.318820477536558     
  0.269228134134116       0.127065041842404     
 p           4   1.00000000000000     
   5.82636561408000       0.737164515452096     
   1.51068960187200       0.682163716148503     
  0.532564832880000       0.357830539292537     
  0.212023236906000       5.398303027584788E-002
 
          14 0
 s           4   1.00000000000000     
   51.0493630955799      -0.163120632101274     
   8.79112274068875      -0.199110245810007     
  0.706404222589298       0.318820477536558     
  0.269228134134116       0.127065041842404     
 p           4   1.00000000000000     
   5.82636561408000       0.737164515452096     
   1.51068960187200       0.682163716148503     
  0.532564832880000       0.357830539292537     
  0.212023236906000       5.398303027584788E-002
 
          15 0
 s           4   1.00000000000000     
   51.0493630955799      -0.163120632101274     
   8.79112274068875      -0.199110245810007     
  0.706404222589298       0.318820477536558     
  0.269228134134116       0.127065041842404     
 p           4   1.00000000000000     
   5.82636561408000       0.737164515452096     
   1.51068960187200       0.682163716148503     
  0.532564832880000       0.357830539292537     
  0.212023236906000       5.398303027584788E-002
 
          16 0
 s           4   1.00000000000000     
   51.0493630955799      -0.163120632101274     
   8.79112274068875      -0.199110245810007     
  0.706404222589298       0.318820477536558     
  0.269228134134116       0.127065041842404     
 p           4   1.00000000000000     
   5.82636561408000       0.737164515452096     
   1.51068960187200       0.682163716148503     
  0.532564832880000       0.357830539292537     
  0.212023236906000       5.398303027584788E-002
 
          17 0
 s           3   1.00000000000000     
   3.37022769753360       0.273591105889083     
  0.613891182214980       0.264605406538605     
  0.166142911484160       8.246594753408230E-002
 
          18 0
 s           3   1.00000000000000     
   3.37022769753360       0.273591105889083     
  0.613891182214980       0.264605406538605     
  0.166142911484160       8.246594753408230E-002
 
          19 0
 s           3   1.00000000000000     
   3.37022769753360       0.273591105889083     
  0.613891182214980       0.264605406538605     
  0.166142911484160       8.246594753408230E-002
 
          20 0
 s           3   1.00000000000000     
   3.37022769753360       0.273591105889083     
  0.613891182214980       0.264605406538605     
  0.166142911484160       8.246594753408230E-002
 
          21 0
 s           3   1.00000000000000     
   3.37022769753360       0.273591105889083     
  0.613891182214980       0.264605406538605     
  0.166142911484160       8.246594753408230E-002
 
          22 0
 s           3   1.00000000000000     
   3.37022769753360       0.273591105889083     
  0.613891182214980       0.264605406538605     
  0.166142911484160       8.246594753408230E-002
 
          23 0
 s           3   1.00000000000000     
   3.37022769753360       0.273591105889083     
  0.613891182214980       0.264605406538605     
  0.166142911484160       8.246594753408230E-002
 
          24 0
 s           3   1.00000000000000     
   3.37022769753360       0.273591105889083     
  0.613891182214980       0.264605406538605     
  0.166142911484160       8.246594753408230E-002
 
          25 0
 s           3   1.00000000000000     
   3.37022769753360       0.273591105889083     
  0.613891182214980       0.264605406538605     
  0.166142911484160       8.246594753408230E-002
 
          26 0
 s           3   1.00000000000000     
   3.37022769753360       0.273591105889083     
  0.613891182214980       0.264605406538605     
  0.166142911484160       8.246594753408230E-002
 
          27 0
 s           3   1.00000000000000     
   3.37022769753360       0.273591105889083     
  0.613891182214980       0.264605406538605     
  0.166142911484160       8.246594753408230E-002
 
          28 0
 s           3   1.00000000000000     
   3.37022769753360       0.273591105889083     
  0.613891182214980       0.264605406538605     
  0.166142911484160       8.246594753408230E-002
 
          29 0
 s           3   1.00000000000000     
   3.37022769753360       0.273591105889083     
  0.613891182214980       0.264605406538605     
  0.166142911484160       8.246594753408230E-002
 
          30 0
 s           3   1.00000000000000     
   3.37022769753360       0.273591105889083     
  0.613891182214980       0.264605406538605     
  0.166142911484160       8.246594753408230E-002
 
          31 0
 s           3   1.00000000000000     
   3.37022769753360       0.273591105889083     
  0.613891182214980       0.264605406538605     
  0.166142911484160       8.246594753408230E-002
 
          32 0
 s           3   1.00000000000000     
   3.37022769753360       0.273591105889083     
  0.613891182214980       0.264605406538605     
  0.166142911484160       8.246594753408230E-002
 
          33 0
 s           3   1.00000000000000     
   3.37022769753360       0.273591105889083     
  0.613891182214980       0.264605406538605     
  0.166142911484160       8.246594753408230E-002
 
          34 0
 s           3   1.00000000000000     
   3.37022769753360       0.273591105889083     
  0.613891182214980       0.264605406538605     
  0.166142911484160       8.246594753408230E-002
 
          35 0
 s           3   1.00000000000000     
   3.37022769753360       0.273591105889083     
  0.613891182214980       0.264605406538605     
  0.166142911484160       8.246594753408230E-002
 
          36 0
 s           3   1.00000000000000     
   3.37022769753360       0.273591105889083     
  0.613891182214980       0.264605406538605     
  0.166142911484160       8.246594753408230E-002
 
          37 0
 s           3   1.00000000000000     
   3.37022769753360       0.273591105889083     
  0.613891182214980       0.264605406538605     
  0.166142911484160       8.246594753408230E-002
 
          38 0
 s           3   1.00000000000000     
   3.37022769753360       0.273591105889083     
  0.613891182214980       0.264605406538605     
  0.166142911484160       8.246594753408230E-002
 
          39 0
 s           3   1.00000000000000     
   3.37022769753360       0.273591105889083     
  0.613891182214980       0.264605406538605     
  0.166142911484160       8.246594753408230E-002
 
          40 0
 s           3   1.00000000000000     
   3.37022769753360       0.273591105889083     
  0.613891182214980       0.264605406538605     
  0.166142911484160       8.246594753408230E-002
 
          41 0
 s           3   1.00000000000000     
   3.37022769753360       0.273591105889083     
  0.613891182214980       0.264605406538605     
  0.166142911484160       8.246594753408230E-002
 
          42 0
 s           3   1.00000000000000     
   3.37022769753360       0.273591105889083     
  0.613891182214980       0.264605406538605     
  0.166142911484160       8.246594753408230E-002
 
          43 0
 s           3   1.00000000000000     
   3.37022769753360       0.273591105889083     
  0.613891182214980       0.264605406538605     
  0.166142911484160       8.246594753408230E-002
 
[MO]
Sym=     1a
Ene=  -0.850851546126259     
Spin= Alpha
Occup=     2.00000000
           1 -0.190015788457993     
           2  0.116392461566093     
           3  7.189884677538369E-002
           4 -3.788018174094322E-002
           5 -0.563769521555593     
           6  1.713957343485634E-002
           7 -6.737108353136692E-002
           8 -4.392987433098566E-002
           9 -0.187492813993214     
          10  1.809899200115858E-002
          11 -7.214289964784358E-002
          12  0.119732864560626     
          13 -0.225471320567357     
          14 -0.124493230573188     
          15  6.769654231726435E-002
          16 -9.759990321509173E-003
          17 -6.784998976873274E-002
          18 -3.362720826877008E-002
          19  1.157686564537345E-002
          20 -4.013093619124642E-002
          21 -3.528220366752545E-002
          22 -8.949238080924057E-003
          23 -2.921985732081969E-002
          24 -3.009514514891595E-002
          25 -2.697575793178397E-003
          26 -6.042690357177264E-003
          27  1.679704098241017E-003
          28 -3.052173885707938E-003
          29  2.062338340137537E-004
          30 -7.104455590110809E-004
          31  5.026489210429336E-004
          32 -1.617283360033127E-004
          33  1.879844405164555E-004
          34  6.509715822392561E-005
          35 -3.533355852137596E-005
          36  5.568975270003155E-006
          37  6.837974059939135E-005
          38  2.535672560313756E-005
          39 -2.435806500982802E-005
          40  2.200801716033510E-005
          41  1.854418919206538E-004
          42  8.132421919362694E-005
          43 -1.262567979082616E-005
          44  4.977120669818933E-005
          45  6.406787145687910E-004
          46 -2.332629393837332E-004
          47  5.799583143407815E-005
          48 -1.834421201965933E-004
          49  6.768750843220366E-005
          50  3.210386976593180E-005
          51  1.427480647017416E-005
          52  1.317326850072601E-005
          53  1.651281487889043E-004
          54  3.113426724024480E-005
          55  5.958511823016250E-006
          56 -1.034598415954442E-005
          57 -4.852978477408481E-004
          58 -1.326024383306878E-003
          59 -1.102016654995605E-004
          60 -1.589098086287463E-004
          61  6.383615517647672E-005
          62  3.036776295321949E-005
          63 -8.209153844973819E-006
          64 -1.424588557990843E-005
          65 -3.507521387963244E-002
          66 -3.304209036907444E-002
          67 -3.028403359392935E-002
          68 -0.117106141690492     
          69 -3.208614890540540E-002
          70 -3.471529811036281E-002
          71 -3.016409056330641E-002
          72 -4.191829776988933E-002
          73 -4.215284491457246E-002
          74 -1.360984263014125E-002
          75 -1.789826259851925E-003
          76  1.648669308482853E-003
          77 -9.800001811646251E-005
          78  1.182702202394509E-005
          79 -5.117840542680519E-006
          80 -7.999061692550390E-006
          81 -3.585788984489335E-006
          82 -7.921173121016304E-006
          83  7.953589205222741E-007
          84  8.057056710362843E-005
          85 -3.687677667701863E-006
          86 -6.499966853626956E-006
          87  4.474380123157774E-007
          88 -1.730990539361270E-004
          89 -6.190076448075836E-004
          90  7.953127106237128E-006
          91 -3.629112774526007E-006
Sym=     2a
Ene=  -0.819861241136737     
Spin= Alpha
Occup=     2.00000000
           1  0.140752923469459     
           2 -4.506960871554470E-003
           3 -6.893051019762368E-002
           4  6.579016541513427E-002
           5  8.549181424005087E-002
           6  0.315024583785489     
           7 -9.279270689131885E-002
           8  0.224844035406715     
           9  0.240388743847004     
          10  4.707464558358655E-002
          11  4.623533474914644E-002
          12 -8.471016327627968E-002
          13 -0.335055123016268     
          14 -2.838175980009988E-002
          15  6.013755225607748E-002
          16  9.295261096000437E-002
          17 -0.271477930232118     
          18 -5.784301715331471E-002
          19  4.104556103839674E-002
          20 -8.357711404408232E-002
          21 -0.149804203505473     
          22  1.252163166659267E-002
          23 -0.106529534683019     
          24 -6.348519908153052E-002
          25 -5.033776220428655E-002
          26 -4.005435025729720E-002
          27  1.075997609703013E-002
          28 -1.588555279123005E-002
          29 -9.198666667922848E-003
          30 -7.661144990936757E-003
          31  8.796464411565647E-003
          32 -9.122223361118361E-004
          33  5.535342025236651E-004
          34 -5.336850441764060E-004
          35  3.837411979578324E-004
          36 -1.445671471348006E-004
          37  3.785100816303778E-004
          38 -3.204327114368517E-005
          39 -4.393999437882912E-005
          40  2.660498185136666E-005
          41  7.097515562451486E-004
          42 -2.840837535593383E-004
          43  6.354631505666083E-005
          44 -2.575988796529128E-004
          45 -5.843029895349297E-003
          46 -5.348011975210712E-003
          47  6.561395564477959E-004
          48 -7.436163067056162E-003
          49  3.315459550311104E-004
          50 -5.061914557070342E-005
          51  6.383888714111000E-005
          52 -2.088406347167409E-005
          53  3.573974203336628E-004
          54 -9.127022532764421E-004
          55 -4.611944476458029E-005
          56 -8.451658934056652E-005
          57 -1.160313406812446E-002
          58 -1.236545430412671E-002
          59 -3.624895590448205E-003
          60  1.510085789543879E-003
          61  2.483491187349800E-004
          62 -1.311882711655582E-004
          63  4.076127199130101E-005
          64 -6.675062797919814E-005
          65  3.831059175475876E-002
          66  5.280349318633817E-003
          67  5.341227731419231E-002
          68 -5.040545606032439E-002
          69  3.922114954186202E-002
          70  5.793686759917915E-002
          71  7.498050638264786E-002
          72 -7.004175062026902E-002
          73 -7.628638675584697E-002
          74 -6.157729107960867E-002
          75 -2.346899895208284E-002
          76 -1.302528288156812E-002
          77 -4.452803707933372E-003
          78 -2.186547029566433E-003
          79  5.664752249865661E-005
          80  7.227771477451299E-006
          81  1.903492150539947E-006
          82  4.052375770637537E-005
          83 -1.594162178911692E-003
          84 -1.890362089779446E-003
          85  4.183058874688552E-006
          86  5.851247705606623E-006
          87  6.073933708417073E-005
          88 -3.501064913307737E-003
          89 -5.370217768651244E-003
          90  1.138870882978284E-005
          91  6.001802251978380E-006
Sym=     3a
Ene=  -0.807369152758964     
Spin= Alpha
Occup=     2.00000000
           1 -0.384156910419184     
           2  9.882331659177411E-002
           3  5.380189261526604E-002
           4  1.862810278088203E-002
           5 -1.202765861000936E-003
           6 -0.272351000651754     
           7 -0.264269360845974     
           8  0.287177928470906     
           9  0.308833208577101     
          10 -8.005648012625140E-002
          11  1.193880764360497E-002
          12 -7.754407371828917E-002
          13  7.360204251086389E-002
          14 -3.200116011965114E-002
          15 -7.640674676460532E-002
          16  6.808551370935055E-002
          17 -1.218072431520894E-003
          18 -1.460458258414307E-002
          19 -1.299225817147885E-002
          20  1.346864070150853E-002
          21  6.582648881570721E-003
          22 -7.573517743544306E-003
          23 -3.638821291179115E-003
          24  1.106538929040549E-002
          25  4.153587125211561E-003
          26  6.722279026993719E-004
          27 -2.365261517332828E-003
          28  2.992135231263029E-003
          29  2.968409799847322E-004
          30 -1.918686266925899E-004
          31 -7.282364742702648E-004
          32  3.391791144394281E-004
          33  5.791563821942649E-005
          34  3.705726793886139E-005
          35 -8.529747281285295E-005
          36  4.917403372455321E-005
          37 -1.611675050879439E-005
          38 -4.945263207058959E-006
          39 -6.230408313734997E-006
          40  1.072257012708451E-005
          41 -1.123067381388720E-006
          42  2.117218182593108E-006
          43 -2.927930803409277E-005
          44  4.980121029981620E-005
          45 -2.405501248812255E-006
          46 -2.024376693275127E-004
          47 -2.367754244206565E-004
          48  4.154075697617673E-004
          49  2.938772392203101E-005
          50  5.459379162408287E-005
          51  5.212884323207911E-006
          52  3.819037693708346E-005
          53  2.619926385929797E-004
          54  3.828797532575427E-004
          55 -5.832339841890952E-007
          56  7.747510189410554E-005
          57  3.593645628071866E-003
          58  2.422798285392662E-003
          59  5.456494266428861E-004
          60  4.396835927320645E-004
          61  8.270758772534496E-005
          62  8.929839767748905E-005
          63 -4.538850202413493E-005
          64 -2.515330552495503E-006
          65 -9.029800988582712E-002
          66 -0.120216981879174     
          67 -9.549761139529200E-002
          68  3.408245799371032E-003
          69  0.111538308011572     
          70  7.269473473909203E-002
          71  6.229148045809473E-002
          72 -5.375980929661787E-003
          73  6.556287834693768E-002
          74 -1.421312428735772E-002
          75  7.330124014131936E-003
          76 -2.430277701124947E-003
          77  6.031330157620716E-004
          78 -3.227514520672234E-004
          79 -2.055333106775521E-006
          80 -5.864420166538044E-007
          81  1.093830873790725E-007
          82 -1.004344940204878E-006
          83 -2.172931382340120E-004
          84  8.812591756207625E-005
          85 -6.451147438654216E-007
          86  5.146099287872219E-006
          87 -2.405168720301450E-006
          88  1.016568695889946E-003
          89  2.991581743836149E-003
          90  1.246812031905937E-005
          91 -1.232514943687916E-006
Sym=     4a
Ene=  -0.786147486635540     
Spin= Alpha
Occup=     2.00000000
           1  5.340190962738616E-002
           2  4.434508472408545E-002
           3 -5.936955389050370E-002
           4  4.071164387509037E-003
           5 -4.843380365450965E-002
           6  0.216399235000074     
           7 -0.198818418974793     
           8  6.075938331575985E-003
           9  0.129947702311596     
          10  5.489751314310937E-002
          11 -3.256621927424524E-002
          12 -3.441753757201429E-002
          13 -0.191910835762733     
          14 -0.121197930561539     
          15 -9.618586322594411E-003
          16 -0.125212714411098     
          17  0.343294087999212     
          18 -1.826981120750379E-002
          19 -0.118583777455962     
          20 -7.872162557258508E-002
          21  0.354772491832478     
          22 -6.654321298454111E-002
          23  0.145140567824628     
          24  1.837732962286644E-002
          25  0.165559019984681     
          26  7.092304914158414E-002
          27 -3.330957101703811E-002
          28  2.535425741420783E-003
          29  3.308871307470052E-002
          30  1.244516434043920E-002
          31 -2.710068830742473E-002
          32 -6.683198644859123E-003
          33  4.260830191571169E-003
          34  4.201328665039581E-003
          35 -3.926421725926841E-003
          36 -1.362601530122629E-004
          37  2.178371085502522E-003
          38  1.840941520078009E-003
          39 -1.695983556444045E-003
          40  1.247745358365514E-003
          41  6.643661097777187E-003
          42  6.292310887720816E-003
          43 -1.384208941980949E-003
          44  5.098106543887076E-003
          45  5.500611497869310E-002
          46  2.067148255499960E-002
          47 -3.111262478062662E-003
          48  3.636582979242721E-002
          49  3.126478829049280E-003
          50  3.178591965396051E-003
          51  7.661816422627181E-004
          52  1.271168342544771E-003
          53  6.570634398663164E-003
          54  7.766722765840369E-003
          55  5.035403253666798E-004
          56 -9.992932981832854E-004
          57  4.935538766468839E-002
          58  3.192792618576781E-002
          59  1.269723799801119E-002
          60 -1.607444856919217E-002
          61  2.031701827875912E-003
          62  2.349411034357099E-003
          63 -9.903267173363977E-004
          64 -8.188173593308323E-004
          65  1.522220185449561E-003
          66  6.648626827717934E-003
          67  4.935007094966525E-002
          68  6.511183668222194E-002
          69  3.128980433889574E-002
          70  2.169140008480524E-002
          71  7.137723201710797E-002
          72 -8.297253183537207E-002
          73 -5.846701909968267E-002
          74  9.184308173061345E-002
          75  8.582120528387011E-002