[Molden Format]
[Title]
[Atoms] AU
C      1     6  0.66676114041504E+01  0.15703537722616E+01 -0.26414416462879E+01
C      2     6  0.70004698188963E+01 -0.35352272654257E+00 -0.50698055228947E+00
C      3     6  0.90016345377842E+01 -0.22968343067604E+01 -0.12926522506979E+01
C      4     6  0.79050010283448E+01  0.10108799140136E+01  0.18789922654000E+01
C      5     6  0.45211070249613E+01 -0.17968035972661E+01  0.92934387082224E-01
N      6     7  0.33530637860258E+01 -0.31259555582556E+01 -0.20420025811275E+01
C      7     6  0.23860987574457E+01 -0.11620657532474E+00  0.11762299781534E+01
N      8     7  0.72628629213979E-01 -0.16778758899188E+01  0.10463849530292E+01
C      9     6 -0.24711890209970E+01 -0.45158447983853E+00  0.69584734146201E+00
C     10     6 -0.26238096991332E+01  0.79072219802037E+00 -0.19002527608911E+01
C     11     6 -0.52723815338775E+01  0.19235899137105E+01 -0.22309915046020E+01
C     12     6 -0.72527995097335E+01 -0.16767332463154E+00 -0.20534713785092E+01
C     13     6 -0.70799469688101E+01 -0.14280159115243E+01  0.53666156363244E+00
C     14     6 -0.44369182320796E+01 -0.25618415783517E+01  0.87411662211345E+00
C     15     6 -0.75529114514230E+01  0.52372464069909E+00  0.26102202772664E+01
C     16     6 -0.55759588344016E+01  0.26185998145914E+01  0.24239922966162E+01
C     17     6 -0.29287922523406E+01  0.14928782822816E+01  0.27755115256634E+01
C     18     6 -0.57404444943388E+01  0.38859765982811E+01 -0.16495788058875E+00
H     19     1  0.61187637734828E+01  0.67534602790282E+00 -0.44098435417044E+01
H     20     1  0.84590692139546E+01  0.25155718299790E+01 -0.29731574202946E+01
H     21     1  0.52866085222303E+01  0.30159219022682E+01 -0.21682609790871E+01
H     22     1  0.92892608810547E+01 -0.36924015577663E+01  0.18879199608396E+00
H     23     1  0.84693552745433E+01 -0.32717210652087E+01 -0.30227363141522E+01
H     24     1  0.10793465567333E+02 -0.13574676979172E+01 -0.16349349602756E+01
H     25     1  0.97873567323728E+01  0.17674132339757E+01  0.15679895297651E+01
H     26     1  0.79996725332865E+01 -0.27927562726599E+00  0.34754000902797E+01
H     27     1  0.66727318010735E+01  0.25809739766439E+01  0.23619718262822E+01
H     28     1  0.49757297121753E+01 -0.32339889742061E+01  0.15156753834195E+01
H     29     1  0.42423112882637E+01 -0.47752533241656E+01 -0.24249576719123E+01
H     30     1  0.34107555786735E+01 -0.20442396701377E+01 -0.36261085011917E+01
H     31     1  0.21281486986073E+01  0.15393237635392E+01 -0.17160190294606E-01
H     32     1  0.27880925634765E+01  0.48402429035722E+00  0.30996709428667E+01
H     33     1  0.61145671862099E+00 -0.28266356931928E+01 -0.56235630781328E+00
H     34     1 -0.32107978242862E-01 -0.28243469512886E+01  0.25986401861935E+01
H     35     1 -0.22733252546990E+01 -0.60752182696808E+00 -0.33777553692178E+01
H     36     1 -0.12323486105925E+01  0.23006868730648E+01 -0.20858065710613E+01
H     37     1 -0.53837791430511E+01  0.28283771902743E+01 -0.40849442680992E+01
H     38     1 -0.69536527609410E+01 -0.15614137395171E+01 -0.35445835036215E+01
H     39     1 -0.91321438719137E+01  0.63278538836854E+00 -0.23129811836686E+01
H     40     1 -0.84808953486906E+01 -0.29399006084028E+01  0.67093187426950E+00
H     41     1 -0.40974737354453E+01 -0.39769536157660E+01 -0.59029422277742E+00
H     42     1 -0.43244562744202E+01 -0.34915574020189E+01  0.27151998842160E+01
H     43     1 -0.74655743045802E+01 -0.37396282752066E+00  0.44655868032390E+01
H     44     1 -0.94368905065702E+01  0.13258440932033E+01  0.23928716465137E+01
H     45     1 -0.59078722850455E+01  0.40195341168809E+01  0.39052320813673E+01
H     46     1 -0.15280395541206E+01  0.30031157201802E+01  0.26794498001899E+01
H     47     1 -0.27947599805597E+01  0.60031469074519E+00  0.46322145605524E+01
H     48     1 -0.76075097272358E+01  0.47186762240282E+01 -0.41144182634759E+00
H     49     1 -0.43544125127382E+01  0.54083200744894E+01 -0.30044442914617E+00
[GTO]
           1 0
 s           4   1.00000000000000     
   51.0493630955799      -0.163120632101274     
   8.79112274068875      -0.199110245810007     
  0.706404222589298       0.318820477536558     
  0.269228134134116       0.127065041842404     
 p           4   1.00000000000000     
   5.82636561408000       0.737164515452096     
   1.51068960187200       0.682163716148503     
  0.532564832880000       0.357830539292537     
  0.212023236906000       5.398303027584788E-002
 
           2 0
 s           4   1.00000000000000     
   51.0493630955799      -0.163120632101274     
   8.79112274068875      -0.199110245810007     
  0.706404222589298       0.318820477536558     
  0.269228134134116       0.127065041842404     
 p           4   1.00000000000000     
   5.82636561408000       0.737164515452096     
   1.51068960187200       0.682163716148503     
  0.532564832880000       0.357830539292537     
  0.212023236906000       5.398303027584788E-002
 
           3 0
 s           4   1.00000000000000     
   51.0493630955799      -0.163120632101274     
   8.79112274068875      -0.199110245810007     
  0.706404222589298       0.318820477536558     
  0.269228134134116       0.127065041842404     
 p           4   1.00000000000000     
   5.82636561408000       0.737164515452096     
   1.51068960187200       0.682163716148503     
  0.532564832880000       0.357830539292537     
  0.212023236906000       5.398303027584788E-002
 
           4 0
 s           4   1.00000000000000     
   51.0493630955799      -0.163120632101274     
   8.79112274068875      -0.199110245810007     
  0.706404222589298       0.318820477536558     
  0.269228134134116       0.127065041842404     
 p           4   1.00000000000000     
   5.82636561408000       0.737164515452096     
   1.51068960187200       0.682163716148503     
  0.532564832880000       0.357830539292537     
  0.212023236906000       5.398303027584788E-002
 
           5 0
 s           4   1.00000000000000     
   51.0493630955799      -0.163120632101274     
   8.79112274068875      -0.199110245810007     
  0.706404222589298       0.318820477536558     
  0.269228134134116       0.127065041842404     
 p           4   1.00000000000000     
   5.82636561408000       0.737164515452096     
   1.51068960187200       0.682163716148503     
  0.532564832880000       0.357830539292537     
  0.212023236906000       5.398303027584788E-002
 
           6 0
 s           4   1.00000000000000     
   63.5940244669410      -0.192343884147216     
   10.9514172315237      -0.234781079249537     
  0.879993102573770       0.375937539017009     
  0.335387152965211       0.149828892718628     
 p           4   1.00000000000000     
   7.29650404814951       0.976586663156674     
   1.89187454507126       0.903722267303458     
  0.666944321108241       0.474049584615364     
  0.265522026741309       7.151606771501186E-002
 
           7 0
 s           4   1.00000000000000     
   51.0493630955799      -0.163120632101274     
   8.79112274068875      -0.199110245810007     
  0.706404222589298       0.318820477536558     
  0.269228134134116       0.127065041842404     
 p           4   1.00000000000000     
   5.82636561408000       0.737164515452096     
   1.51068960187200       0.682163716148503     
  0.532564832880000       0.357830539292537     
  0.212023236906000       5.398303027584788E-002
 
           8 0
 s           4   1.00000000000000     
   63.5940244669410      -0.192343884147216     
   10.9514172315237      -0.234781079249537     
  0.879993102573770       0.375937539017009     
  0.335387152965211       0.149828892718628     
 p           4   1.00000000000000     
   7.29650404814951       0.976586663156674     
   1.89187454507126       0.903722267303458     
  0.666944321108241       0.474049584615364     
  0.265522026741309       7.151606771501186E-002
 
           9 0
 s           4   1.00000000000000     
   51.0493630955799      -0.163120632101274     
   8.79112274068875      -0.199110245810007     
  0.706404222589298       0.318820477536558     
  0.269228134134116       0.127065041842404     
 p           4   1.00000000000000     
   5.82636561408000       0.737164515452096     
   1.51068960187200       0.682163716148503     
  0.532564832880000       0.357830539292537     
  0.212023236906000       5.398303027584788E-002
 
          10 0
 s           4   1.00000000000000     
   51.0493630955799      -0.163120632101274     
   8.79112274068875      -0.199110245810007     
  0.706404222589298       0.318820477536558     
  0.269228134134116       0.127065041842404     
 p           4   1.00000000000000     
   5.82636561408000       0.737164515452096     
   1.51068960187200       0.682163716148503     
  0.532564832880000       0.357830539292537     
  0.212023236906000       5.398303027584788E-002
 
          11 0
 s           4   1.00000000000000     
   51.0493630955799      -0.163120632101274     
   8.79112274068875      -0.199110245810007     
  0.706404222589298       0.318820477536558     
  0.269228134134116       0.127065041842404     
 p           4   1.00000000000000     
   5.82636561408000       0.737164515452096     
   1.51068960187200       0.682163716148503     
  0.532564832880000       0.357830539292537     
  0.212023236906000       5.398303027584788E-002
 
          12 0
 s           4   1.00000000000000     
   51.0493630955799      -0.163120632101274     
   8.79112274068875      -0.199110245810007     
  0.706404222589298       0.318820477536558     
  0.269228134134116       0.127065041842404     
 p           4   1.00000000000000     
   5.82636561408000       0.737164515452096     
   1.51068960187200       0.682163716148503     
  0.532564832880000       0.357830539292537     
  0.212023236906000       5.398303027584788E-002
 
          13 0
 s           4   1.00000000000000     
   51.0493630955799      -0.163120632101274     
   8.79112274068875      -0.199110245810007     
  0.706404222589298       0.318820477536558     
  0.269228134134116       0.127065041842404     
 p           4   1.00000000000000     
   5.82636561408000       0.737164515452096     
   1.51068960187200       0.682163716148503     
  0.532564832880000       0.357830539292537     
  0.212023236906000       5.398303027584788E-002
 
          14 0
 s           4   1.00000000000000     
   51.0493630955799      -0.163120632101274     
   8.79112274068875      -0.199110245810007     
  0.706404222589298       0.318820477536558     
  0.269228134134116       0.127065041842404     
 p           4   1.00000000000000     
   5.82636561408000       0.737164515452096     
   1.51068960187200       0.682163716148503     
  0.532564832880000       0.357830539292537     
  0.212023236906000       5.398303027584788E-002
 
          15 0
 s           4   1.00000000000000     
   51.0493630955799      -0.163120632101274     
   8.79112274068875      -0.199110245810007     
  0.706404222589298       0.318820477536558     
  0.269228134134116       0.127065041842404     
 p           4   1.00000000000000     
   5.82636561408000       0.737164515452096     
   1.51068960187200       0.682163716148503     
  0.532564832880000       0.357830539292537     
  0.212023236906000       5.398303027584788E-002
 
          16 0
 s           4   1.00000000000000     
   51.0493630955799      -0.163120632101274     
   8.79112274068875      -0.199110245810007     
  0.706404222589298       0.318820477536558     
  0.269228134134116       0.127065041842404     
 p           4   1.00000000000000     
   5.82636561408000       0.737164515452096     
   1.51068960187200       0.682163716148503     
  0.532564832880000       0.357830539292537     
  0.212023236906000       5.398303027584788E-002
 
          17 0
 s           4   1.00000000000000     
   51.0493630955799      -0.163120632101274     
   8.79112274068875      -0.199110245810007     
  0.706404222589298       0.318820477536558     
  0.269228134134116       0.127065041842404     
 p           4   1.00000000000000     
   5.82636561408000       0.737164515452096     
   1.51068960187200       0.682163716148503     
  0.532564832880000       0.357830539292537     
  0.212023236906000       5.398303027584788E-002
 
          18 0
 s           4   1.00000000000000     
   51.0493630955799      -0.163120632101274     
   8.79112274068875      -0.199110245810007     
  0.706404222589298       0.318820477536558     
  0.269228134134116       0.127065041842404     
 p           4   1.00000000000000     
   5.82636561408000       0.737164515452096     
   1.51068960187200       0.682163716148503     
  0.532564832880000       0.357830539292537     
  0.212023236906000       5.398303027584788E-002
 
          19 0
 s           3   1.00000000000000     
   3.37022769753360       0.273591105889083     
  0.613891182214980       0.264605406538605     
  0.166142911484160       8.246594753408230E-002
 
          20 0
 s           3   1.00000000000000     
   3.37022769753360       0.273591105889083     
  0.613891182214980       0.264605406538605     
  0.166142911484160       8.246594753408230E-002
 
          21 0
 s           3   1.00000000000000     
   3.37022769753360       0.273591105889083     
  0.613891182214980       0.264605406538605     
  0.166142911484160       8.246594753408230E-002
 
          22 0
 s           3   1.00000000000000     
   3.37022769753360       0.273591105889083     
  0.613891182214980       0.264605406538605     
  0.166142911484160       8.246594753408230E-002
 
          23 0
 s           3   1.00000000000000     
   3.37022769753360       0.273591105889083     
  0.613891182214980       0.264605406538605     
  0.166142911484160       8.246594753408230E-002
 
          24 0
 s           3   1.00000000000000     
   3.37022769753360       0.273591105889083     
  0.613891182214980       0.264605406538605     
  0.166142911484160       8.246594753408230E-002
 
          25 0
 s           3   1.00000000000000     
   3.37022769753360       0.273591105889083     
  0.613891182214980       0.264605406538605     
  0.166142911484160       8.246594753408230E-002
 
          26 0
 s           3   1.00000000000000     
   3.37022769753360       0.273591105889083     
  0.613891182214980       0.264605406538605     
  0.166142911484160       8.246594753408230E-002
 
          27 0
 s           3   1.00000000000000     
   3.37022769753360       0.273591105889083     
  0.613891182214980       0.264605406538605     
  0.166142911484160       8.246594753408230E-002
 
          28 0
 s           3   1.00000000000000     
   3.37022769753360       0.273591105889083     
  0.613891182214980       0.264605406538605     
  0.166142911484160       8.246594753408230E-002
 
          29 0
 s           3   1.00000000000000     
   3.37022769753360       0.273591105889083     
  0.613891182214980       0.264605406538605     
  0.166142911484160       8.246594753408230E-002
 
          30 0
 s           3   1.00000000000000     
   3.37022769753360       0.273591105889083     
  0.613891182214980       0.264605406538605     
  0.166142911484160       8.246594753408230E-002
 
          31 0
 s           3   1.00000000000000     
   3.37022769753360       0.273591105889083     
  0.613891182214980       0.264605406538605     
  0.166142911484160       8.246594753408230E-002
 
          32 0
 s           3   1.00000000000000     
   3.37022769753360       0.273591105889083     
  0.613891182214980       0.264605406538605     
  0.166142911484160       8.246594753408230E-002
 
          33 0
 s           3   1.00000000000000     
   3.37022769753360       0.273591105889083     
  0.613891182214980       0.264605406538605     
  0.166142911484160       8.246594753408230E-002
 
          34 0
 s           3   1.00000000000000     
   3.37022769753360       0.273591105889083     
  0.613891182214980       0.264605406538605     
  0.166142911484160       8.246594753408230E-002
 
          35 0
 s           3   1.00000000000000     
   3.37022769753360       0.273591105889083     
  0.613891182214980       0.264605406538605     
  0.166142911484160       8.246594753408230E-002
 
          36 0
 s           3   1.00000000000000     
   3.37022769753360       0.273591105889083     
  0.613891182214980       0.264605406538605     
  0.166142911484160       8.246594753408230E-002
 
          37 0
 s           3   1.00000000000000     
   3.37022769753360       0.273591105889083     
  0.613891182214980       0.264605406538605     
  0.166142911484160       8.246594753408230E-002
 
          38 0
 s           3   1.00000000000000     
   3.37022769753360       0.273591105889083     
  0.613891182214980       0.264605406538605     
  0.166142911484160       8.246594753408230E-002
 
          39 0
 s           3   1.00000000000000     
   3.37022769753360       0.273591105889083     
  0.613891182214980       0.264605406538605     
  0.166142911484160       8.246594753408230E-002
 
          40 0
 s           3   1.00000000000000     
   3.37022769753360       0.273591105889083     
  0.613891182214980       0.264605406538605     
  0.166142911484160       8.246594753408230E-002
 
          41 0
 s           3   1.00000000000000     
   3.37022769753360       0.273591105889083     
  0.613891182214980       0.264605406538605     
  0.166142911484160       8.246594753408230E-002
 
          42 0
 s           3   1.00000000000000     
   3.37022769753360       0.273591105889083     
  0.613891182214980       0.264605406538605     
  0.166142911484160       8.246594753408230E-002
 
          43 0
 s           3   1.00000000000000     
   3.37022769753360       0.273591105889083     
  0.613891182214980       0.264605406538605     
  0.166142911484160       8.246594753408230E-002
 
          44 0
 s           3   1.00000000000000     
   3.37022769753360       0.273591105889083     
  0.613891182214980       0.264605406538605     
  0.166142911484160       8.246594753408230E-002
 
          45 0
 s           3   1.00000000000000     
   3.37022769753360       0.273591105889083     
  0.613891182214980       0.264605406538605     
  0.166142911484160       8.246594753408230E-002
 
          46 0
 s           3   1.00000000000000     
   3.37022769753360       0.273591105889083     
  0.613891182214980       0.264605406538605     
  0.166142911484160       8.246594753408230E-002
 
          47 0
 s           3   1.00000000000000     
   3.37022769753360       0.273591105889083     
  0.613891182214980       0.264605406538605     
  0.166142911484160       8.246594753408230E-002
 
          48 0
 s           3   1.00000000000000     
   3.37022769753360       0.273591105889083     
  0.613891182214980       0.264605406538605     
  0.166142911484160       8.246594753408230E-002
 
          49 0
 s           3   1.00000000000000     
   3.37022769753360       0.273591105889083     
  0.613891182214980       0.264605406538605     
  0.166142911484160       8.246594753408230E-002
 
[MO]
Sym=     1a
Ene=  -0.836374489647801     
Spin= Alpha
Occup=     2.00000000
           1  1.858701558982351E-003
           2 -1.909717914380249E-003
           3 -1.703717706071728E-003
           4  1.658222174667982E-003
           5  9.352362144766186E-003
           6 -1.383870095839732E-002
           7 -3.661568655852625E-003
           8  2.446140868828103E-003
           9 -4.353033007512101E-004
          10 -1.155653431062190E-003
          11  1.697197134636815E-004
          12  2.798014939927065E-004
          13  8.728227216779071E-004
          14 -2.102484752432343E-003
          15 -1.097215831437745E-003
          16 -7.720151018165620E-004
          17  0.117263796383143     
          18 -7.701714063216644E-002
          19  1.369657709497108E-002
          20  9.243833971790823E-003
          21  5.875679704670837E-002
          22 -1.474274378003357E-002
          23  3.424452778055637E-002
          24  5.270244492044323E-002
          25  0.299853592240720     
          26 -0.117077772484942     
          27 -0.103259373624366     
          28 -2.186807724117536E-002
          29  0.534628768451425     
          30  8.739590980635933E-002
          31  9.626957589107762E-002
          32 -1.578334913042629E-003
          33  0.164511714345304     
          34  0.103060910733920     
          35 -3.061709289843570E-002
          36  1.261326733318862E-002
          37  3.524099427555097E-002
          38  1.630037863638453E-002
          39 -1.617760555703420E-002
          40  2.692446522994467E-002
          41  8.138811568430087E-004
          42  2.965856682608752E-003
          43 -1.761503201519241E-003
          44  1.889086729621380E-003
          45 -2.033823425138046E-004
          46  7.553672329262245E-004
          47 -1.198214129250553E-004
          48  2.549173685540150E-004
          49  1.432131460281241E-004
          50  3.039026554733561E-003
          51  1.702656511634237E-004
          52  1.998088079097246E-004
          53  2.712452936119577E-002
          54  2.713523624871658E-002
          55  1.334061919320371E-002
          56  1.991128602895562E-004
          57 -1.673939075256852E-004
          58  8.037424608214090E-004
          59 -1.807881912120666E-004
          60 -1.136524233151498E-004
          61  8.366871719035928E-004
          62  3.146029248674680E-003
          63 -2.207240185783390E-003
          64 -9.054382931192842E-004
          65  3.551066797291585E-002
          66  1.940395961370946E-002
          67 -2.363345888573766E-002
          68 -1.901180825059971E-002
          69  7.701200816703464E-005
          70  8.215846219219741E-004
          71 -6.898650276243093E-004
          72  1.590024233072826E-004
          73  4.129545319092562E-004
          74 -2.587798532132250E-005
          75  1.338968975750175E-003
          76  4.817171385817763E-005
          77 -4.397628253623752E-005
          78  3.371118088347855E-006
          79 -3.725280662939081E-005
          80  2.292718225336879E-004
          81  4.856489551389856E-004
          82  2.449190085967774E-002
          83 -8.852314157187933E-004
          84  5.625636032194130E-003
          85  5.955260062052400E-002
          86  5.673972289259846E-002
          87  0.130779569315629     
          88  0.131345012362584     
          89  7.865271038108228E-003
          90  9.846424219009938E-003
          91 -7.572843930886551E-005
          92  2.495565776904687E-005
          93 -1.346346444976336E-005
          94 -9.758192861514439E-005
          95  5.778422303906183E-003
          96  6.548403239375851E-003
          97  2.709031234453652E-005
          98 -1.271082465600113E-005
          99 -6.782502630602876E-005
         100  9.545861123825347E-003
         101  8.021077141241725E-003
         102 -1.285226222257216E-005
         103  6.471501239286597E-005
Sym=     2a
Ene=  -0.813496900840484     
Spin= Alpha
Occup=     2.00000000
           1  1.102366414357335E-002
           2 -5.050067469450744E-003
           3 -7.683688893740707E-003
           4  7.419012137512105E-003
           5  4.838541443585392E-002
           6 -3.685730865922449E-002
           7 -1.298676212278063E-002
           8  6.708879153135878E-003
           9  6.132913056255326E-003
          10 -8.015718978283126E-003
          11  2.509767211832942E-003
          12  2.200136740832156E-003
          13  9.623634277061154E-003
          14 -8.299403578439335E-003
          15 -5.295343236771013E-003
          16 -5.236354905878092E-003
          17  0.231736785430768     
          18 -8.458017950659641E-002
          19  1.804703713898956E-002
          20 -6.490037541881457E-004
          21  0.118456646792837     
          22  1.186972487995572E-002
          23  5.667552237303256E-002
          24  8.290891230162305E-002
          25  0.252643864942463     
          26  4.104106242355922E-002
          27 -8.627166906125584E-002
          28 -3.299587416570026E-002
          29 -0.150548748457568     
          30  0.372532419823061     
          31 -2.332088673189231E-002
          32 -8.729993584426565E-003
          33 -0.377522771228048     
          34 -6.855815757522532E-002
          35  6.678051869051153E-002
          36 -2.225778368432776E-002
          37 -9.843954158522537E-002
          38 -8.482287210387799E-003
          39  3.757985808835759E-002
          40 -6.532409824119201E-002
          41 -2.057046180652283E-002
          42 -1.252631243879688E-002
          43  1.053863776118352E-002
          44 -1.132089818773502E-002
          45 -1.008917512449703E-002
          46 -8.381416521868705E-003
          47  4.086346772784205E-004
          48 -5.605703990763615E-003
          49 -2.438630626078130E-002
          50 -2.374120613219943E-002
          51 -1.988814878361721E-003
          52 -1.437796880658693E-003
          53 -0.132743306821880     
          54 -7.507296639472311E-002
          55 -5.405541662074054E-002
          56  1.378986233498030E-003
          57 -1.037767342975388E-002
          58 -9.269825422293760E-003
          59  1.905462969354629E-003
          60  4.159536407466075E-003
          61 -2.114446362606692E-002
          62 -1.424634371198675E-002
          63  1.360820300256796E-002
          64  6.035322548086986E-003
          65 -0.105066530962440     
          66 -1.851291092123744E-002
          67  5.845359694099649E-002
          68  5.057618264890728E-002
          69 -9.030011805426581E-003
          70 -4.767311090499602E-003
          71  7.710771438475460E-003
          72 -1.501676521250770E-003
          73  2.779772393962160E-003
          74  4.709525097455575E-004
          75  4.245501047566693E-003
          76  1.419924357309097E-003
          77  1.572869164012070E-003
          78  2.484051762403318E-004
          79  3.291877934170355E-004
          80  2.343095255160820E-003
          81  3.482017741552107E-003
          82  5.543904618161934E-002
          83  1.080525067018050E-002
          84  1.839549412462723E-002
          85  4.964843313474729E-002
          86  5.655941953415814E-002
          87  1.273408343650850E-002
          88 -5.169839827078769E-002
          89 -2.116349149965534E-002
          90 -1.639910295867614E-002
          91 -1.305294009718027E-003
          92 -1.603622092041980E-003
          93 -4.471575410618916E-004
          94 -1.584260346416255E-003
          95 -2.995413879881927E-002
          96 -3.194583217203636E-002
          97 -1.676962340681820E-003
          98 -4.498086877356904E-004
          99 -1.313276091500718E-003
         100 -1.856619717797430E-002
         101 -2.409559164909073E-002
         102 -4.164902378383979E-004
         103 -1.397652942615118E-003
Sym=     3a
Ene=  -0.785085266539668     
Spin= Alpha
Occup=     2.00000000
           1  5.238231216304705E-002
           2 -9.924406087510187E-003
           3 -3.072641863901077E-002
           4  2.636215721776658E-002
           5  0.176065928380088     
           6 -7.079112632206254E-002
           7 -3.931467240938170E-002
           8  2.952146771842497E-003
           9  4.793564090259560E-002
          10 -3.638629444517037E-002
          11  1.560033983790515E-002
          12  9.349325650066237E-003
          13  4.005633623396945E-002
          14 -1.966103791431362E-002
          15 -1.879005780464727E-002
          16 -2.357471096677267E-002
          17  0.351070257426137     
          18  9.343481289881605E-004
          19 -1.004133753213515E-002
          20 -8.558565385581213E-002
          21  0.260529588332289     
          22  7.896864862628210E-002
          23  8.155395587658661E-002
          24  9.971363705349368E-002
          25  8.049923740354773E-003
          26  0.138064654197409     
          27  1.049071883543660E-002
          28 -7.615162100550985E-002
          29 -0.198454307001536     
          30 -0.107787005749822     
          31  3.205834831552252E-002
          32 -0.107365619863823     
          33  0.233439276890315     
          34 -7.502910969642075E-002
          35  2.871148109061237E-002
          36 -3.773024485964881E-002
          37  0.151718437822708     
          38 -1.833459911266568E-002
          39 -2.312949369728960E-002
          40  6.024679331923802E-002
          41  7.941886963036869E-002
          42  2.445463745958040E-002
          43 -2.192254821954135E-002
          44  2.674084661182055E-002
          45  4.492151295997349E-002
          46  2.342101357305788E-002
          47  2.873438422988671E-003
          48  1.760981861083554E-002
          49  7.417400172637813E-002
          50  3.820383491323917E-002
          51  1.043873459287993E-002
          52 -5.628215999346184E-004
          53  0.133529916959379     
          54  2.066356783399665E-002
          55  6.011271577966799E-002
          56 -1.311340546168396E-002
          57  4.106322549532638E-002
          58  2.275963531625207E-002
          59 -2.352173752637636E-003
          60 -1.474127006489580E-002
          61  6.928354202935984E-002
          62  2.160292073379457E-002
          63 -2.431629029858553E-002
          64 -1.705815946232370E-002
          65  0.112930833955949     
          66 -1.826924490243975E-002
          67 -2.856321862460144E-002
          68 -5.104250653298137E-002
          69  4.358133142582584E-002
          70  1.193168067363213E-002
          71 -2.570834412353620E-002
          72  3.189219498284055E-003
          73  1.545083152056943E-002
          74  5.767432955993171E-003
          75  1.374022412761660E-002
          76  1.092214341360675E-002
          77  1.356477192552799E-002
          78  4.855817451192988E-003
          79  4.330219200699623E-003
          80  9.442046210909091E-003
          81  9.568063374352091E-003
          82  8.660316072053856E-002
          83  5.480561543723873E-002