43
 energy: -49.261939116425 gnorm: 0.000596500898 xtb: 6.7.1 (edcfbbe)
C            4.07654294524276        0.15978137914280        1.15366418809354
N            2.91768677148107       -0.68002773140440        1.47672317044888
C            3.07540454939233       -1.32150991799781        2.78470097514102
C            1.63148461416855        0.03231928736497        1.30428319460864
C            1.19336978753377       -0.20689144700861       -0.16394846488942
N            1.63876199610071       -1.57392135709318       -0.46503086647879
C           -0.30435392665641        0.08498943150963       -0.44114162311438
C           -0.62041046949176        1.53569444886861       -0.05452292591814
C           -2.07181794507862        1.86884079476417       -0.40639987057524
C           -2.29376766729929        1.69481669466046       -1.90674050475157
C           -2.00171023486747        0.24674370303371       -2.29178429285482
C           -0.55114914016872       -0.08984806553292       -1.94811264534907
C           -2.93322794637760       -0.69017290893974       -1.52616743189981
C           -2.70471540509270       -0.50961417610186       -0.02714431640619
C           -1.25158303797928       -0.84826659994739        0.32215019641014
C           -3.00389012466123        0.93592378000557        0.36399361773359
H            4.19314409707732        0.94363038783110        1.90164035612070
H            3.94616247839412        0.61866806271394        0.17693980273902
H            4.98128903604593       -0.44444815626751        1.13595010839286
H            2.75781967488885       -1.41615225471134        0.67950052453918
H            2.25104537806905       -2.00636814671006        2.97039524850707
H            3.09873440716395       -0.57028206349654        3.57388020626182
H            4.00668499451834       -1.88408069911451        2.81091066751076
H            1.73960690615356        1.09195387821128        1.52645607263041
H            0.89816259277328       -0.40113607982011        1.98381513149170
H            1.77395980327526        0.46618971877250       -0.80569218597597
H            0.92822949329342       -2.25179303648556       -0.20567053701824
H            1.84413657672477       -1.69986182374497       -1.44783589782990
H           -0.47680928259267        1.67992838268488        1.01813018876227
H            0.05182162401199        2.21496479728159       -0.58367055212156
H           -2.27495513745577        2.90592298296380       -0.12343451557364
H           -1.64010332536118        2.36969789682169       -2.46308123818245
H           -3.32431239767459        1.94495522656060       -2.15999552544147
H           -2.15094813963773        0.11514479001062       -3.36760116813283
H            0.11901962954026        0.56578550052575       -2.50986247630776
H           -0.34588630031211       -1.12097278731018       -2.24744139399407
H           -3.97092211364853       -0.46162035978124       -1.77016035587544
H           -2.74495736593825       -1.72682693219128       -1.81489814645703
H           -3.36514825635268       -1.18345805604790        0.52765959197253
H           -1.06602956024858       -1.89357853044228        0.05903795389448
H           -1.11764795261265       -0.73940099975595        1.40100714692469
H           -2.86695415974794        1.07164237954357        1.43916193455876
H           -4.04176746659488        1.17263860663288        0.12878636652595
