31
 energy: -33.288467597856 gnorm: 0.000532670327 xtb: 6.7.1 (edcfbbe)
C            2.69613377530936        1.29510308537877        1.19944977229239
N            2.04558216982928        0.31703794937130        0.32322368543421
C            2.94322583258586       -0.10847933274787       -0.75663921121749
C            0.71676367111960        0.74059156161045       -0.17274808283795
C           -0.16814074611678       -0.53224804282513       -0.19039551898486
N            0.26624263655531       -1.30400038822175        0.98000439273345
C           -1.68955042405697       -0.24340027174908       -0.27859758257922
C           -1.96750658714397        0.57988393146853       -1.53927174654531
C           -2.41918811049740       -1.58775851722414       -0.38938758595906
C           -2.21674791819693        0.50995048147631        0.94519181091503
H            3.62898038189648        0.88591845446975        1.58255613723867
H            2.05102529560494        1.53476114681380        2.04176995235949
H            2.91598920559651        2.20914664165360        0.64827664928363
H            1.69626101320960       -0.55770461560118        0.88212427210374
H            3.84073027225217       -0.56023891641061       -0.33912782059998
H            3.23251386911455        0.74831055748302       -1.36464540615842
H            2.44817945189220       -0.84088643909307       -1.38922994014877
H            0.79299016412962        1.19430290905926       -1.15880557824346
H            0.30113040742263        1.46888919320758        0.52288912147755
H            0.09754749467049       -1.12025179585205       -1.07611856850800
H           -0.24281656058409       -1.02040322489611        1.81170902930599
H            0.12658464852019       -2.29824295656297        0.85423194934672
H           -1.53718810453851        0.10591452447881       -2.41812676055970
H           -3.03942025608922        0.65868514935747       -1.69442107769711
H           -1.57086451025266        1.58780275102534       -1.45289365538989
H           -2.28455435427972       -2.19075055946648        0.50605309092635
H           -3.48456399778835       -1.42140556887884       -0.51621065610431
H           -2.06388905014206       -2.15320592372187       -1.24805036288582
H           -1.77349800545312        1.49814080201014        1.03999733712572
H           -2.05265943728472       -0.04073058722049        1.86959292309651
H           -3.28929222728462        0.64526800160771        0.84009719100764
