[Molden Format]
[Title]
[Atoms] AU
C      1     6 -0.68635630584344E+01 -0.28979888191558E+01 -0.16610256361407E+01
C      2     6 -0.55308167305662E+01 -0.54525043918500E+00 -0.61748047436150E+00
C      3     6 -0.61653010201332E+01 -0.27651635930280E+00  0.21921905079577E+01
C      4     6 -0.64893341630588E+01  0.17842870253540E+01 -0.20411732263225E+01
C      5     6 -0.26531216851960E+01 -0.84820199145751E+00 -0.11001310086561E+01
N      6     7 -0.14365980061528E+01 -0.29835745604630E+01  0.17956789000502E+00
C      7     6 -0.10748404500818E+01  0.14964171579726E+01 -0.33621840895549E+00
N      8     7  0.15956450063212E+01  0.66923254799950E+00 -0.19206787370043E+00
C      9     6  0.30598284256485E+01  0.17823507053874E+01  0.19142243105108E+01
C     10     6  0.52114588050416E+01  0.48613320015557E-01  0.27514059407368E+01
C     11     6  0.77318277939562E+01  0.49318651628954E+00  0.14006642522047E+01
C     12     6  0.75186081117943E+01  0.10814910949661E+01 -0.14241038873621E+01
C     13     6  0.54463394952100E+01 -0.39101646925237E+00 -0.27973341179593E+01
C     14     6  0.28625437902448E+01  0.88149099624683E+00 -0.26743067212776E+01
H     15     1 -0.64411734709379E+01 -0.31562035912107E+01 -0.36560938026082E+01
H     16     1 -0.88961496898373E+01 -0.26956393963139E+01 -0.14654547579026E+01
H     17     1 -0.63061704496484E+01 -0.45950016291101E+01 -0.64298055789071E+00
H     18     1 -0.82031840950075E+01 -0.15829264512611E+00  0.24061538506110E+01
H     19     1 -0.53627671864366E+01  0.14302909750167E+01  0.30068465771811E+01
H     20     1 -0.55342118219981E+01 -0.18983819236385E+01  0.32884470955719E+01
H     21     1 -0.59456003353432E+01  0.17136346129572E+01 -0.40214808032550E+01
H     22     1 -0.85387980389219E+01  0.18504891118013E+01 -0.19518270354163E+01
H     23     1 -0.57716091252338E+01  0.35221350022075E+01 -0.12155866792967E+01
H     24     1 -0.24150428100443E+01 -0.11547700590738E+01 -0.31346431072820E+01
H     25     1 -0.17495840963741E+01 -0.46303605026198E+01 -0.74172133572137E+00
H     26     1 -0.21089944999494E+01 -0.31789087972263E+01  0.19666945719852E+01
H     27     1 -0.16715496558122E+01  0.21489143412372E+01  0.15231498089914E+01
H     28     1 -0.12980843891809E+01  0.30342551562166E+01 -0.16834205642671E+01
H     29     1  0.12560958674279E+01 -0.13002048951437E+01  0.19088911027467E+00
H     30     1  0.37734855367997E+01  0.36325199747756E+01  0.13507337202350E+01
H     31     1  0.17663037089188E+01  0.20467855048231E+01  0.34981064497617E+01
H     32     1  0.46098336563529E+01 -0.19110782275763E+01  0.25098986462020E+01
H     33     1  0.55207757110976E+01  0.32215964882671E+00  0.47696313068993E+01
H     34     1  0.88880847102484E+01 -0.11912930338972E+01  0.16644322776637E+01
H     35     1  0.87256743223738E+01  0.20542312537704E+01  0.23062244598340E+01
H     36     1  0.93341137436422E+01  0.64847933658465E+00 -0.22936027642067E+01
H     37     1  0.72007128529582E+01  0.30994123614672E+01 -0.17092651095344E+01
H     38     1  0.53370248989694E+01 -0.23217984485028E+01 -0.20863778139013E+01
H     39     1  0.59421483873217E+01 -0.50622511341445E+00 -0.47947240536183E+01
H     40     1  0.16192566834239E+01  0.13387927491456E-01 -0.40715712741266E+01
H     41     1  0.30567332705971E+01  0.28869423302621E+01 -0.31325560856411E+01
[GTO]
           1 0
 s           4   1.00000000000000     
   51.0493630955799      -0.163120632101274     
   8.79112274068875      -0.199110245810007     
  0.706404222589298       0.318820477536558     
  0.269228134134116       0.127065041842404     
 p           4   1.00000000000000     
   5.82636561408000       0.737164515452096     
   1.51068960187200       0.682163716148503     
  0.532564832880000       0.357830539292537     
  0.212023236906000       5.398303027584788E-002
 
           2 0
 s           4   1.00000000000000     
   51.0493630955799      -0.163120632101274     
   8.79112274068875      -0.199110245810007     
  0.706404222589298       0.318820477536558     
  0.269228134134116       0.127065041842404     
 p           4   1.00000000000000     
   5.82636561408000       0.737164515452096     
   1.51068960187200       0.682163716148503     
  0.532564832880000       0.357830539292537     
  0.212023236906000       5.398303027584788E-002
 
           3 0
 s           4   1.00000000000000     
   51.0493630955799      -0.163120632101274     
   8.79112274068875      -0.199110245810007     
  0.706404222589298       0.318820477536558     
  0.269228134134116       0.127065041842404     
 p           4   1.00000000000000     
   5.82636561408000       0.737164515452096     
   1.51068960187200       0.682163716148503     
  0.532564832880000       0.357830539292537     
  0.212023236906000       5.398303027584788E-002
 
           4 0
 s           4   1.00000000000000     
   51.0493630955799      -0.163120632101274     
   8.79112274068875      -0.199110245810007     
  0.706404222589298       0.318820477536558     
  0.269228134134116       0.127065041842404     
 p           4   1.00000000000000     
   5.82636561408000       0.737164515452096     
   1.51068960187200       0.682163716148503     
  0.532564832880000       0.357830539292537     
  0.212023236906000       5.398303027584788E-002
 
           5 0
 s           4   1.00000000000000     
   51.0493630955799      -0.163120632101274     
   8.79112274068875      -0.199110245810007     
  0.706404222589298       0.318820477536558     
  0.269228134134116       0.127065041842404     
 p           4   1.00000000000000     
   5.82636561408000       0.737164515452096     
   1.51068960187200       0.682163716148503     
  0.532564832880000       0.357830539292537     
  0.212023236906000       5.398303027584788E-002
 
           6 0
 s           4   1.00000000000000     
   63.5940244669410      -0.192343884147216     
   10.9514172315237      -0.234781079249537     
  0.879993102573770       0.375937539017009     
  0.335387152965211       0.149828892718628     
 p           4   1.00000000000000     
   7.29650404814951       0.976586663156674     
   1.89187454507126       0.903722267303458     
  0.666944321108241       0.474049584615364     
  0.265522026741309       7.151606771501186E-002
 
           7 0
 s           4   1.00000000000000     
   51.0493630955799      -0.163120632101274     
   8.79112274068875      -0.199110245810007     
  0.706404222589298       0.318820477536558     
  0.269228134134116       0.127065041842404     
 p           4   1.00000000000000     
   5.82636561408000       0.737164515452096     
   1.51068960187200       0.682163716148503     
  0.532564832880000       0.357830539292537     
  0.212023236906000       5.398303027584788E-002
 
           8 0
 s           4   1.00000000000000     
   63.5940244669410      -0.192343884147216     
   10.9514172315237      -0.234781079249537     
  0.879993102573770       0.375937539017009     
  0.335387152965211       0.149828892718628     
 p           4   1.00000000000000     
   7.29650404814951       0.976586663156674     
   1.89187454507126       0.903722267303458     
  0.666944321108241       0.474049584615364     
  0.265522026741309       7.151606771501186E-002
 
           9 0
 s           4   1.00000000000000     
   51.0493630955799      -0.163120632101274     
   8.79112274068875      -0.199110245810007     
  0.706404222589298       0.318820477536558     
  0.269228134134116       0.127065041842404     
 p           4   1.00000000000000     
   5.82636561408000       0.737164515452096     
   1.51068960187200       0.682163716148503     
  0.532564832880000       0.357830539292537     
  0.212023236906000       5.398303027584788E-002
 
          10 0
 s           4   1.00000000000000     
   51.0493630955799      -0.163120632101274     
   8.79112274068875      -0.199110245810007     
  0.706404222589298       0.318820477536558     
  0.269228134134116       0.127065041842404     
 p           4   1.00000000000000     
   5.82636561408000       0.737164515452096     
   1.51068960187200       0.682163716148503     
  0.532564832880000       0.357830539292537     
  0.212023236906000       5.398303027584788E-002
 
          11 0
 s           4   1.00000000000000     
   51.0493630955799      -0.163120632101274     
   8.79112274068875      -0.199110245810007     
  0.706404222589298       0.318820477536558     
  0.269228134134116       0.127065041842404     
 p           4   1.00000000000000     
   5.82636561408000       0.737164515452096     
   1.51068960187200       0.682163716148503     
  0.532564832880000       0.357830539292537     
  0.212023236906000       5.398303027584788E-002
 
          12 0
 s           4   1.00000000000000     
   51.0493630955799      -0.163120632101274     
   8.79112274068875      -0.199110245810007     
  0.706404222589298       0.318820477536558     
  0.269228134134116       0.127065041842404     
 p           4   1.00000000000000     
   5.82636561408000       0.737164515452096     
   1.51068960187200       0.682163716148503     
  0.532564832880000       0.357830539292537     
  0.212023236906000       5.398303027584788E-002
 
          13 0
 s           4   1.00000000000000     
   51.0493630955799      -0.163120632101274     
   8.79112274068875      -0.199110245810007     
  0.706404222589298       0.318820477536558     
  0.269228134134116       0.127065041842404     
 p           4   1.00000000000000     
   5.82636561408000       0.737164515452096     
   1.51068960187200       0.682163716148503     
  0.532564832880000       0.357830539292537     
  0.212023236906000       5.398303027584788E-002
 
          14 0
 s           4   1.00000000000000     
   51.0493630955799      -0.163120632101274     
   8.79112274068875      -0.199110245810007     
  0.706404222589298       0.318820477536558     
  0.269228134134116       0.127065041842404     
 p           4   1.00000000000000     
   5.82636561408000       0.737164515452096     
   1.51068960187200       0.682163716148503     
  0.532564832880000       0.357830539292537     
  0.212023236906000       5.398303027584788E-002
 
          15 0
 s           3   1.00000000000000     
   3.37022769753360       0.273591105889083     
  0.613891182214980       0.264605406538605     
  0.166142911484160       8.246594753408230E-002
 
          16 0
 s           3   1.00000000000000     
   3.37022769753360       0.273591105889083     
  0.613891182214980       0.264605406538605     
  0.166142911484160       8.246594753408230E-002
 
          17 0
 s           3   1.00000000000000     
   3.37022769753360       0.273591105889083     
  0.613891182214980       0.264605406538605     
  0.166142911484160       8.246594753408230E-002
 
          18 0
 s           3   1.00000000000000     
   3.37022769753360       0.273591105889083     
  0.613891182214980       0.264605406538605     
  0.166142911484160       8.246594753408230E-002
 
          19 0
 s           3   1.00000000000000     
   3.37022769753360       0.273591105889083     
  0.613891182214980       0.264605406538605     
  0.166142911484160       8.246594753408230E-002
 
          20 0
 s           3   1.00000000000000     
   3.37022769753360       0.273591105889083     
  0.613891182214980       0.264605406538605     
  0.166142911484160       8.246594753408230E-002
 
          21 0
 s           3   1.00000000000000     
   3.37022769753360       0.273591105889083     
  0.613891182214980       0.264605406538605     
  0.166142911484160       8.246594753408230E-002
 
          22 0
 s           3   1.00000000000000     
   3.37022769753360       0.273591105889083     
  0.613891182214980       0.264605406538605     
  0.166142911484160       8.246594753408230E-002
 
          23 0
 s           3   1.00000000000000     
   3.37022769753360       0.273591105889083     
  0.613891182214980       0.264605406538605     
  0.166142911484160       8.246594753408230E-002
 
          24 0
 s           3   1.00000000000000     
   3.37022769753360       0.273591105889083     
  0.613891182214980       0.264605406538605     
  0.166142911484160       8.246594753408230E-002
 
          25 0
 s           3   1.00000000000000     
   3.37022769753360       0.273591105889083     
  0.613891182214980       0.264605406538605     
  0.166142911484160       8.246594753408230E-002
 
          26 0
 s           3   1.00000000000000     
   3.37022769753360       0.273591105889083     
  0.613891182214980       0.264605406538605     
  0.166142911484160       8.246594753408230E-002
 
          27 0
 s           3   1.00000000000000     
   3.37022769753360       0.273591105889083     
  0.613891182214980       0.264605406538605     
  0.166142911484160       8.246594753408230E-002
 
          28 0
 s           3   1.00000000000000     
   3.37022769753360       0.273591105889083     
  0.613891182214980       0.264605406538605     
  0.166142911484160       8.246594753408230E-002
 
          29 0
 s           3   1.00000000000000     
   3.37022769753360       0.273591105889083     
  0.613891182214980       0.264605406538605     
  0.166142911484160       8.246594753408230E-002
 
          30 0
 s           3   1.00000000000000     
   3.37022769753360       0.273591105889083     
  0.613891182214980       0.264605406538605     
  0.166142911484160       8.246594753408230E-002
 
          31 0
 s           3   1.00000000000000     
   3.37022769753360       0.273591105889083     
  0.613891182214980       0.264605406538605     
  0.166142911484160       8.246594753408230E-002
 
          32 0
 s           3   1.00000000000000     
   3.37022769753360       0.273591105889083     
  0.613891182214980       0.264605406538605     
  0.166142911484160       8.246594753408230E-002
 
          33 0
 s           3   1.00000000000000     
   3.37022769753360       0.273591105889083     
  0.613891182214980       0.264605406538605     
  0.166142911484160       8.246594753408230E-002
 
          34 0
 s           3   1.00000000000000     
   3.37022769753360       0.273591105889083     
  0.613891182214980       0.264605406538605     
  0.166142911484160       8.246594753408230E-002
 
          35 0
 s           3   1.00000000000000     
   3.37022769753360       0.273591105889083     
  0.613891182214980       0.264605406538605     
  0.166142911484160       8.246594753408230E-002
 
          36 0
 s           3   1.00000000000000     
   3.37022769753360       0.273591105889083     
  0.613891182214980       0.264605406538605     
  0.166142911484160       8.246594753408230E-002
 
          37 0
 s           3   1.00000000000000     
   3.37022769753360       0.273591105889083     
  0.613891182214980       0.264605406538605     
  0.166142911484160       8.246594753408230E-002
 
          38 0
 s           3   1.00000000000000     
   3.37022769753360       0.273591105889083     
  0.613891182214980       0.264605406538605     
  0.166142911484160       8.246594753408230E-002
 
          39 0
 s           3   1.00000000000000     
   3.37022769753360       0.273591105889083     
  0.613891182214980       0.264605406538605     
  0.166142911484160       8.246594753408230E-002
 
          40 0
 s           3   1.00000000000000     
   3.37022769753360       0.273591105889083     
  0.613891182214980       0.264605406538605     
  0.166142911484160       8.246594753408230E-002
 
          41 0
 s           3   1.00000000000000     
   3.37022769753360       0.273591105889083     
  0.613891182214980       0.264605406538605     
  0.166142911484160       8.246594753408230E-002
 
[MO]
Sym=     1a
Ene=  -0.840839604295953     
Spin= Alpha
Occup=     2.00000000
           1  6.044032860550807E-004
           2 -5.208011291960801E-004
           3 -2.002144702492225E-004
           4 -9.138057394134148E-005
           5 -4.988111153766159E-003
           6 -9.530357580176995E-003
           7 -8.809754563704836E-004
           8 -3.755533508254348E-004
           9 -9.868653051484069E-004
          10 -1.674064799927719E-003
          11 -6.140475304420666E-005
          12  8.944692681855015E-004
          13 -2.000577087861861E-004
          14 -1.305228074362215E-003
          15  4.800744196287363E-004
          16 -3.443857031776285E-004
          17 -8.280589301233587E-002
          18 -5.299532783989573E-002
          19 -2.395518864474384E-002
          20 -1.775595641211213E-002
          21 -3.979775905417503E-002
          22 -9.149500266789791E-003
          23 -4.465248473207536E-002
          24  1.168478767643467E-002
          25 -0.250179732619303     
          26 -0.135235628343483     
          27  5.339065399096292E-002
          28 -8.249200033562386E-004
          29 -0.551547375957864     
          30  4.577463222104591E-002
          31 -6.545594758406098E-002
          32  2.667609105660987E-002
          33 -0.173682190953012     
          34  6.969579338139666E-002
          35  4.241622500360043E-002
          36  9.461135630075675E-002
          37 -2.843870036193433E-002
          38  2.436338781511193E-002
          39 -9.330577830160664E-003
          40  1.714076101803149E-002
          41 -4.288296081689845E-003
          42  5.892299912859251E-003
          43 -4.288743900740015E-004
          44  1.243125709140692E-003
          45 -6.484703427929381E-003
          46  7.769036052896302E-003
          47  9.776108768750032E-004
          48 -7.212126814207405E-004
          49 -2.945417844776648E-002
          50  2.774986334210234E-002
          51 -1.083629406610839E-002
          52 -1.325198041578095E-002
          53 -0.189798338973817     
          54  6.640521583862387E-002
          55  2.573491276761040E-003
          56 -0.113765015015076     
          57 -1.518219419048944E-006
          58 -5.353636651939766E-006
          59  8.318626675156406E-005
          60  2.934413005767043E-005
          61 -8.637034712053185E-004
          62 -2.432261925015081E-004
          63 -6.775549136872315E-005
          64  3.401558597380081E-005
          65 -2.155311432170603E-004
          66 -1.727779673811193E-002
          67  1.622226336566450E-003
          68 -2.740073441513555E-003
          69 -4.851855976777453E-002
          70 -4.848822022506317E-002
          71 -0.121617628997955     
          72 -3.222041285760183E-002
          73 -3.634969345639627E-002
          74 -9.158999155192860E-003
          75 -1.918302225224509E-003
          76 -1.075935656143927E-004
          77 -1.680953810670357E-004
          78 -1.098516676368019E-004
          79 -2.036012057283233E-003
          80 -6.517929126179148E-003
          81 -1.884463722059878E-003
          82 -3.975762587496717E-002
          83 -3.757947023110488E-002
Sym=     2a
Ene=  -0.812960867020459     
Spin= Alpha
Occup=     2.00000000
           1 -7.445738814867815E-003
           2 -8.247714341278332E-003
           3 -5.697898711517331E-003
           4 -2.570320650167149E-003
           5 -5.757897864735835E-002
           6 -4.626271508453801E-002
           7 -9.632190680509872E-004
           8  4.619610867251676E-004
           9 -1.373306736657928E-002
          10 -1.013578953834220E-002
          11  5.553822862757386E-004
          12  1.007135240149156E-002
          13 -1.147799395386096E-002
          14 -1.026752919925282E-002
          15  6.825420890379799E-003
          16 -4.671428738514482E-003
          17 -0.265485758197942     
          18 -8.107194807954154E-002
          19 -3.452006575842704E-002
          20 -4.641787632385515E-002
          21 -0.135414933014108     
          22  2.146637038222622E-002
          23 -0.106149674932230     
          24  3.891680879370385E-002
          25 -0.321932730357655     
          26 -1.425716102673498E-003
          27  0.101255221894776     
          28  1.960820937141888E-002
          29  0.109957647997326     
          30  0.364258552358942     
          31  5.812644582508991E-002
          32  6.764547360429334E-002
          33  0.266160753259105     
          34  1.059759952035528E-002
          35 -5.684003898264229E-002
          36 -8.669578179946397E-002
          37  0.106436602332105     
          38 -4.895714392905924E-002
          39  3.098876519914208E-002
          40 -3.989003717302080E-002
          41  3.007159240998085E-002
          42 -2.529892173785205E-002
          43  1.787569784775822E-003
          44 -2.685828295552452E-003
          45  3.274878496694458E-002
          46 -2.353534979948534E-002
          47 -5.182528087438683E-003
          48  3.354221955851176E-003
          49  7.926455255149951E-002
          50 -3.556006582340710E-002
          51  2.356008370886609E-002
          52  2.415775894459806E-002
          53  0.143128249350289     
          54  5.405962396090001E-002
          55 -2.185630927598101E-004
          56  7.781922517395715E-002
          57 -1.746503396836616E-003
          58 -3.186614514514916E-004
          59 -1.911568993221531E-003
          60 -5.995510363115752E-004
          61 -5.440557248280835E-003
          62 -3.648677109740503E-003
          63 -2.698987825908817E-003
          64 -4.099602584469896E-004
          65 -4.329551927145742E-003
          66 -6.134090693224566E-002
          67 -1.192772126676665E-002
          68 -2.203435926683425E-002
          69 -7.437974298367885E-002
          70 -7.167005441948852E-002
          71 -2.092523744800886E-002
          72  6.755021858906739E-002
          73  4.508909068407390E-002
          74  2.771671282546945E-002
          75  1.522487171824837E-002
          76  2.830604874395088E-003
          77  3.815749513147660E-003
          78  2.418398615916008E-003
          79  9.621482327672449E-003
          80  1.831556401338169E-002
          81  1.067339643052213E-002
          82  4.624302299340501E-003
          83  3.681012316099374E-002
Sym=     3a
Ene=  -0.802703412056489     
Spin= Alpha
Occup=     2.00000000
           1  7.963548141780542E-004
           2  7.235714382649728E-004
           3  7.020408748287106E-004
           4  7.187071013191938E-004
           5  8.447693041203500E-003
           6  5.017495917519120E-003
           7  6.152622170257655E-004
           8  3.080299977228822E-003
           9  4.738244523803319E-003
          10  2.828475011105658E-003
          11  2.942390678011867E-004
          12 -1.989018919111087E-003
          13  1.136190859056565E-003
          14  7.763565847392583E-004
          15 -7.141680751894653E-004
          16  1.161680998429731E-003
          17  1.393883079692274E-002
          18 -1.448755070605593E-003
          19  3.989539350578457E-003
          20  2.423264566536153E-002
          21  1.572034527718016E-002
          22 -2.961553814156690E-003
          23  1.288245393275507E-002
          24  7.741753243979305E-003
          25  7.853441823018226E-002
          26  1.139557293379347E-002
          27  3.526104287041114E-003
          28  9.804254776657996E-002
          29  6.158022177762738E-003
          30 -7.254091112454451E-002
          31  7.641783135543752E-002
          32  0.425206385821898     
          33  0.303896256740278     
          34 -7.764883503524972E-002
          35 -5.020357564765887E-002
          36 -7.442198574961205E-003
          37  9.573902581576568E-002
          38 -5.782933497294730E-002
          39  3.078210215660421E-002
          40 -1.606496912186180E-002
          41  9.476960667180120E-003
          42 -1.267233662660339E-002
          43  1.520307854195296E-003
          44  8.862396572559361E-003
          45 -2.511961556934664E-002
          46  2.309274300729139E-002
          47  6.353191262585249E-003
          48  1.233778814057138E-002
          49 -0.134843507537420     
          50  8.143175463522621E-002
          51 -3.377979569237264E-002
          52 -1.252435446186079E-002
          53 -0.393577332750286     
          54  4.250051753673309E-002
          55  3.944975899792709E-002
          56 -6.397156106432006E-002
          57 -2.755324674100257E-005
          58  7.969009038179106E-005
          59  2.942630532588620E-004
          60  2.462562759542605E-004
          61  3.220613546991214E-003
          62  1.280972272679945E-003
          63 -1.619990423981514E-004
          64  8.283650979996303E-005
          65  8.139867599994327E-004
          66 -1.018663311650283E-002
          67 -8.377901121304730E-004
          68  8.477054436921049E-003
          69  6.443806193968220E-002
          70 -3.638206641663065E-003
          71  1.025718043794057E-002
          72  6.058948401566048E-002
          73  0.112207281784754     
          74  2.453721943573031E-002
          75  1.966710589917656E-002
          76  6.032272611415200E-004
          77  2.170664786855188E-003
          78 -2.458630845905101E-003
          79 -7.656245099731667E-003
          80 -3.035940476460004E-002
          81 -2.586691645613723E-002
          82 -0.122007934868050     
          83 -9.494777646910033E-002
Sym=     4a
Ene=  -0.783831155368400     
Spin= Alpha
Occup=     2.00000000
           1  5.534455327113717E-002
           2  3.356098856367527E-002
           3  2.658662383007350E-002
           4  1.342731071794694E-002
           5  0.184004100265925     
           6  7.896980029248893E-002
           7 -2.323390055265071E-002
           8 -3.675971559993880E-003
           9  5.346225163553679E-002
          10  2.242463098017099E-002
          11 -8.178636640799082E-003
          12 -3.550019344452315E-002
          13  3.983093245389992E-002
          14  1.998921484361169E-002
          15 -2.695152115915055E-002
          16  1.413935932157620E-002
          17  0.359338140967163     
          18 -1.347765973329758E-002
          19 -9.919157014951217E-002
          20  5.315065458268779E-002
          21  0.305536054052974     
          22 -8.598742209741421E-002
          23  0.115655719893607     
          24 -6.768657622385515E-002
          25 -0.122976649817142     
          26 -0.156660078310633     
          27 -9.115643396539300E-002
          28 -1.305498978180460E-002
          29 -9.306239237050860E-002
          30  0.197196247041493     
          31 -0.138778822463305     
          32  4.202883720757710E-002
          33  0.124449203037992     
          34  7.745913665013075E-002
          35 -5.766889758236440E-002
          36  1.288037304347992E-002
          37  0.146804541147547     
          38 -3.110508755447200E-002
          39  2.525385587867449E-002
          40 -3.372512510071434E-002
          41  6.568652637862055E-002
          42 -3.768486449964643E-002
          43 -1.154700841791277E-005
          44 -3.545754283395530E-003
          45  6.364586213040017E-002
          46 -3.019172383548793E-002
          47 -1.267873234722916E-002
          48  6.088254754860907E-003
          49  0.117030669037337     
          50 -2.635959223963225E-002
          51  1.924669345639453E-002
          52  2.141774196023741E-002
          53  6.830655068114125E-002
          54  8.027591927118913E-002
          55 -4.568407890511857E-002
          56  1.140765121737334E-003
          57  1.307434396359365E-002
          58  5.800466908564680E-003
          59  1.594404607652583E-002
          60  6.332621829097779E-003
          61  1.088512885159079E-002
          62  1.701685242196499E-002
          63  9.597469470029301E-003
          64  4.682666505798141E-003
          65  7.490321160912878E-003
          66  9.616166934731442E-002
          67  6.789352046666419E-002
          68  7.111744838365278E-002
          69 -3.621480162957675E-002
          70 -5.742887527953668E-002
          71  5.171507113541759E-002
          72  2.885872599806043E-002
          73  1.975338559514003E-002
          74  4.516104431025415E-002
          75  3.132455714197838E-002
          76  1.089905782187957E-002
          77  1.175015476677095E-002
          78  9.042628456224262E-003
          79  1.618040433234614E-002
          80  3.435319555980153E-002
          81  2.469847569661442E-002
          82  1.470068677979107E-002
          83  5.658674324599947E-003
Sym=     5a
Ene=  -0.764089268301116     
Spin= Alpha
Occup=     2.00000000
           1 -6.175088198698216E-002
           2 -2.275572268918954E-002
           3 -3.661411088175807E-002
           4 -1.333060139185322E-002
           5 -0.209837005513884     
           6 -3.043138582075627E-002
           7 -2.266434297584003E-002
           8  7.707409547872135E-003
           9 -7.891142410428777E-002
          10 -1.821299781684041E-002
          11 -1.839975426739541E-003
          12  4.626120575023875E-002
          13 -9.512568507367290E-002
          14 -3.257209014924250E-002
          15  3.856070630773518E-002
          16 -2.627571042994307E-002
          17 -8.688583341961689E-002
          18  0.110360614920294     
          19 -0.121768358079930     
          20  2.128581379610442E-002
          21  0.193744700490527     
          22  4.466746733105447E-002
          23  3.540424419571474E-002
          24 -1.280515155879222E-002
          25 -0.233358099871149     
          26  7.323397355952792E-002
          27 -0.116314879869276     
          28  2.480043830304298E-002
          29  0.178242478864166     
          30 -5.068709519613419E-003
          31 -0.319850616988183     
          32  4.133384163263760E-002
          33 -0.120712037042882     
          34 -2.000352925224896E-002
          35 -9.021211260980007E-002
          36  2.178416106206580E-003
          37 -4.676169076770095E-002
          38 -1.286050697785834E-002
          39 -3.492193801786314E-002
          40  8.398326550138500E-003
          41 -6.157321338794147E-002
          42  1.976646494267601E-002
          43 -7.178245752617346E-003
          44  1.378924554088821E-002
          45 -8.986450194179549E-002