38
 energy: -45.825841664791 gnorm: 0.000406849462 xtb: 6.7.1 (edcfbbe)
C           -3.31023049735268       -0.35678403869027       -1.62268642784384
C           -2.57152622255757        0.29314602788777       -0.44630599577623
C           -2.79526982949082        1.80711296826245       -0.49438230908392
C           -3.13776782116845       -0.26138318648761        0.86334328718537
C           -1.05622125535109        0.00096921545547       -0.61001592665935
N           -0.67007891627036       -1.41372042854207       -0.56559849329677
C           -0.16787970930767        0.69147045962939        0.45431861926169
N            1.15163740287964        0.02487775348463        0.40282658520219
C            1.80387709103479       -0.14981988809085        1.71456126168052
C            3.03428980609991       -1.03839851727813        1.58165766303591
C            4.01640157476608       -0.45052412837540        0.57538035659801
Cl           4.66347771358264        1.11201459595991        1.20711514442187
C            3.31516873860670       -0.20968117695231       -0.75618943812689
C            2.07965981634734        0.65791607531141       -0.55638994108420
H           -4.36914243083115       -0.12269811566568       -1.56935632253341
H           -2.93188190501073        0.01511711186090       -2.57228136257946
H           -3.21176073626700       -1.44018362669077       -1.60735229815393
H           -2.40090225349467        2.29704898905314        0.39161052948115
H           -2.32940494611403        2.24279159380535       -1.37489770299106
H           -3.85968531988827        2.01712908645723       -0.54203826886769
H           -4.20342524896587       -0.05492143206352        0.90226414122470
H           -2.68502100869304        0.20490968170359        1.73491066600801
H           -3.01738648366076       -1.34058189095845        0.93769646792936
H           -0.76230195431908        0.37752610128729       -1.59647410736014
H           -0.85549067887656       -1.87896123214498       -1.44494112810306
H           -1.18811160781204       -1.90433189937000        0.15732611551643
H           -0.07050277910200        1.75915794314885        0.26954834374739
H           -0.59526205422865        0.54049592999924        1.44526084834406
H            0.82465355978464       -0.92469001248497        0.00981273940385
H            1.09264534130920       -0.60011107016178        2.40830463307188
H            2.10151344390973        0.83141516114096        2.09112643082611
H            2.74591088017355       -2.03827201515633        1.24955640856447
H            3.50825342466022       -1.13238842016366        2.55802118539331
H            4.87987285025807       -1.10446607323845        0.44792293584598
H            3.03822881312811       -1.17325071492121       -1.18943818168902
H            3.98939471736070        0.29009928346438       -1.45064438716377
H            1.56344763287313        0.80255510807261       -1.50535146733562
H            2.38082085198852        1.62941478145128       -0.15793894962766
