38
 energy: -41.784639410607 gnorm: 0.000374429336 xtb: 6.7.1 (edcfbbe)
C           -3.07176273153220        0.64727573378487        0.83230646343961
C           -2.59073430002871       -0.17100756266576       -0.36872426408354
C           -2.87302025002648        0.60629615307047       -1.65745346908137
C           -3.36127134285093       -1.49642928904692       -0.40833551044234
C           -1.07541951410072       -0.49827400257576       -0.29683125352179
N           -0.63502819972871       -1.22810424699004        0.89633136959052
C           -0.16239928355849        0.75121238113888       -0.36219831349613
N            1.17839690242300        0.32229393793561        0.09010389328845
C            1.90514017245392        1.31177638538963        0.90949206194581
C            3.14355784862358        0.67093636291503        1.52434427498056
C            4.05580777836936        0.12073144051798        0.43264972087292
C            3.27379070927226       -0.85286220307667       -0.44326202989988
C            2.03455526741864       -0.17099711168412       -1.00873623778722
H           -4.14081004938048        0.81551719433773        0.73932682789285
H           -2.90962213573027        0.12638235181659        1.77413711059869
H           -2.59286596663346        1.62216585441513        0.88165177298001
H           -3.94562390280747        0.69949502710763       -1.79966711102202
H           -2.46533197129401        0.08893591965857       -2.52256960455637
H           -2.45638899970294        1.60909024703719       -1.61802961591001
H           -3.04416429840423       -2.10511829884448       -1.25224364451740
H           -3.22109316532789       -2.06778964474771        0.50685279033229
H           -4.42441461298918       -1.30326399574769       -0.51521732426843
H           -0.84397460615166       -1.13468896996644       -1.15882464412337
H           -1.09360717079703       -0.86792120060259        1.72789503548020
H           -0.84898156875835       -2.21495956363987        0.83072144430939
H           -0.53251163341330        1.51448532808820        0.32213043058224
H           -0.11828312173123        1.16723232133348       -1.36674820822458
H            0.87688260577415       -0.51253026308507        0.69891357696073
H            2.18788645106446        2.15290272260847        0.27124698142257
H            1.23992854541025        1.67560221149123        1.69449859932676
H            3.67025524596051        1.41772090784024        2.11715425905316
H            2.84225142427142       -0.13538683823856        2.19637655485384
H            4.43847088590197        0.94056179803976       -0.17712365159441
H            4.90925589737795       -0.38462459648684        0.88129331214258
H            2.97760798766281       -1.72504542967794        0.14313258334945
H            3.89352293318436       -1.20191442996646       -1.26823264208312
H            1.45817989905204       -0.87026058063331       -1.61533138103748
H            2.32181827072697        0.68056394914927       -1.63103015775345
