[Molden Format]
[Title]
[Atoms] AU
C      1     6 -0.47514278997663E+01 -0.17730000983695E+01 -0.87486802614670E+00
C      2     6 -0.37749284539838E+01  0.80903375982757E+00 -0.10307974227568E-01
C      3     6 -0.41570004564747E+01  0.10701935309647E+01  0.28454923294281E+01
C      4     6 -0.52767917639848E+01  0.28880674989750E+01 -0.13594758543285E+01
C      5     6 -0.93758764946209E+00  0.12000229939925E+01 -0.62187496125443E+00
N      6     7 -0.26044357407622E+00  0.10148098662194E+01 -0.33118233179287E+01
C      7     6  0.85444430500197E+00 -0.69614137024249E+00  0.70684590587195E+00
N      8     7  0.32588071846801E+01 -0.55904159080602E+00 -0.70886221171883E+00
C      9     6  0.47799733838298E+01 -0.29006900491778E+01 -0.79228809555862E+00
C     10     6  0.69577178642732E+01 -0.23893754061413E+01  0.10992205919815E+01
O     11     8  0.63209110039892E+01 -0.53237124996100E-01  0.22337202158603E+01
C     12     6  0.50791101904530E+01  0.13011494137528E+01  0.39215900506567E+00
H     13     1 -0.45010375718194E+01 -0.20671711615551E+01 -0.28953711313224E+01
H     14     1 -0.38533003485271E+01 -0.33174052656449E+01  0.13901105272520E+00
H     15     1 -0.67653828964544E+01 -0.18834514028172E+01 -0.49390593168036E+00
H     16     1 -0.33931611706828E+01  0.28494752691047E+01  0.35318564505216E+01
H     17     1 -0.32681501614129E+01 -0.47209942863890E+00  0.38686116361132E+01
H     18     1 -0.61625645818533E+01  0.10354770022591E+01  0.32789345216601E+01
H     19     1 -0.51505678993237E+01  0.27086038449745E+01 -0.34035798431391E+01
H     20     1 -0.46027048948605E+01  0.47523839530009E+01 -0.81647388129299E+00
H     21     1 -0.72593630660605E+01  0.27606387011384E+01 -0.84693564336989E+00
H     22     1 -0.43222967589226E+00  0.31106695967334E+01 -0.43126682163603E-02
H     23     1 -0.53954752000205E+00  0.26575809062214E+01 -0.42511614769115E+01
H     24     1 -0.12757252413367E+01 -0.35901045256278E+00 -0.41877183257275E+01
H     25     1  0.94960902712134E-01 -0.26027200675776E+01  0.53865015087754E+00
H     26     1  0.11420379649625E+01 -0.25359556902414E+00  0.26949696623805E+01
H     27     1  0.23683765461701E+01  0.90319467689617E-01 -0.25268040892069E+01
H     28     1  0.55007749062717E+01 -0.31994822122859E+01 -0.26990157687319E+01
H     29     1  0.36466900311576E+01 -0.45250786558510E+01 -0.23988109851938E+00
H     30     1  0.87743763114204E+01 -0.22463773696640E+01  0.11565976360671E+00
H     31     1  0.71007712924653E+01 -0.37957661033781E+01  0.25953059535126E+01
H     32     1  0.63522870739576E+01  0.19269257729700E+01 -0.11311221351713E+01
H     33     1  0.41306758646269E+01  0.29182917509050E+01  0.12448533174674E+01
[GTO]
           1 0
 s           4   1.00000000000000     
   51.0493630955799      -0.163120632101274     
   8.79112274068875      -0.199110245810007     
  0.706404222589298       0.318820477536558     
  0.269228134134116       0.127065041842404     
 p           4   1.00000000000000     
   5.82636561408000       0.737164515452096     
   1.51068960187200       0.682163716148503     
  0.532564832880000       0.357830539292537     
  0.212023236906000       5.398303027584788E-002
 
           2 0
 s           4   1.00000000000000     
   51.0493630955799      -0.163120632101274     
   8.79112274068875      -0.199110245810007     
  0.706404222589298       0.318820477536558     
  0.269228134134116       0.127065041842404     
 p           4   1.00000000000000     
   5.82636561408000       0.737164515452096     
   1.51068960187200       0.682163716148503     
  0.532564832880000       0.357830539292537     
  0.212023236906000       5.398303027584788E-002
 
           3 0
 s           4   1.00000000000000     
   51.0493630955799      -0.163120632101274     
   8.79112274068875      -0.199110245810007     
  0.706404222589298       0.318820477536558     
  0.269228134134116       0.127065041842404     
 p           4   1.00000000000000     
   5.82636561408000       0.737164515452096     
   1.51068960187200       0.682163716148503     
  0.532564832880000       0.357830539292537     
  0.212023236906000       5.398303027584788E-002
 
           4 0
 s           4   1.00000000000000     
   51.0493630955799      -0.163120632101274     
   8.79112274068875      -0.199110245810007     
  0.706404222589298       0.318820477536558     
  0.269228134134116       0.127065041842404     
 p           4   1.00000000000000     
   5.82636561408000       0.737164515452096     
   1.51068960187200       0.682163716148503     
  0.532564832880000       0.357830539292537     
  0.212023236906000       5.398303027584788E-002
 
           5 0
 s           4   1.00000000000000     
   51.0493630955799      -0.163120632101274     
   8.79112274068875      -0.199110245810007     
  0.706404222589298       0.318820477536558     
  0.269228134134116       0.127065041842404     
 p           4   1.00000000000000     
   5.82636561408000       0.737164515452096     
   1.51068960187200       0.682163716148503     
  0.532564832880000       0.357830539292537     
  0.212023236906000       5.398303027584788E-002
 
           6 0
 s           4   1.00000000000000     
   63.5940244669410      -0.192343884147216     
   10.9514172315237      -0.234781079249537     
  0.879993102573770       0.375937539017009     
  0.335387152965211       0.149828892718628     
 p           4   1.00000000000000     
   7.29650404814951       0.976586663156674     
   1.89187454507126       0.903722267303458     
  0.666944321108241       0.474049584615364     
  0.265522026741309       7.151606771501186E-002
 
           7 0
 s           4   1.00000000000000     
   51.0493630955799      -0.163120632101274     
   8.79112274068875      -0.199110245810007     
  0.706404222589298       0.318820477536558     
  0.269228134134116       0.127065041842404     
 p           4   1.00000000000000     
   5.82636561408000       0.737164515452096     
   1.51068960187200       0.682163716148503     
  0.532564832880000       0.357830539292537     
  0.212023236906000       5.398303027584788E-002
 
           8 0
 s           4   1.00000000000000     
   63.5940244669410      -0.192343884147216     
   10.9514172315237      -0.234781079249537     
  0.879993102573770       0.375937539017009     
  0.335387152965211       0.149828892718628     
 p           4   1.00000000000000     
   7.29650404814951       0.976586663156674     
   1.89187454507126       0.903722267303458     
  0.666944321108241       0.474049584615364     
  0.265522026741309       7.151606771501186E-002
 
           9 0
 s           4   1.00000000000000     
   51.0493630955799      -0.163120632101274     
   8.79112274068875      -0.199110245810007     
  0.706404222589298       0.318820477536558     
  0.269228134134116       0.127065041842404     
 p           4   1.00000000000000     
   5.82636561408000       0.737164515452096     
   1.51068960187200       0.682163716148503     
  0.532564832880000       0.357830539292537     
  0.212023236906000       5.398303027584788E-002
 
          10 0
 s           4   1.00000000000000     
   51.0493630955799      -0.163120632101274     
   8.79112274068875      -0.199110245810007     
  0.706404222589298       0.318820477536558     
  0.269228134134116       0.127065041842404     
 p           4   1.00000000000000     
   5.82636561408000       0.737164515452096     
   1.51068960187200       0.682163716148503     
  0.532564832880000       0.357830539292537     
  0.212023236906000       5.398303027584788E-002
 
          11 0
 s           4   1.00000000000000     
   69.1379619061966      -0.204787563700778     
   11.9061291327073      -0.249970231368273     
  0.956708277443407       0.400258802406396     
  0.364625204960737       0.159522066676936     
 p           4   1.00000000000000     
   8.21241932577816        1.13215567991868     
   2.12935769970981        1.04768407822548     
  0.750664482023609       0.549565082171590     
  0.298852465432831       8.290848659276662E-002
 
          12 0
 s           4   1.00000000000000     
   51.0493630955799      -0.163120632101274     
   8.79112274068875      -0.199110245810007     
  0.706404222589298       0.318820477536558     
  0.269228134134116       0.127065041842404     
 p           4   1.00000000000000     
   5.82636561408000       0.737164515452096     
   1.51068960187200       0.682163716148503     
  0.532564832880000       0.357830539292537     
  0.212023236906000       5.398303027584788E-002
 
          13 0
 s           3   1.00000000000000     
   3.37022769753360       0.273591105889083     
  0.613891182214980       0.264605406538605     
  0.166142911484160       8.246594753408230E-002
 
          14 0
 s           3   1.00000000000000     
   3.37022769753360       0.273591105889083     
  0.613891182214980       0.264605406538605     
  0.166142911484160       8.246594753408230E-002
 
          15 0
 s           3   1.00000000000000     
   3.37022769753360       0.273591105889083     
  0.613891182214980       0.264605406538605     
  0.166142911484160       8.246594753408230E-002
 
          16 0
 s           3   1.00000000000000     
   3.37022769753360       0.273591105889083     
  0.613891182214980       0.264605406538605     
  0.166142911484160       8.246594753408230E-002
 
          17 0
 s           3   1.00000000000000     
   3.37022769753360       0.273591105889083     
  0.613891182214980       0.264605406538605     
  0.166142911484160       8.246594753408230E-002
 
          18 0
 s           3   1.00000000000000     
   3.37022769753360       0.273591105889083     
  0.613891182214980       0.264605406538605     
  0.166142911484160       8.246594753408230E-002
 
          19 0
 s           3   1.00000000000000     
   3.37022769753360       0.273591105889083     
  0.613891182214980       0.264605406538605     
  0.166142911484160       8.246594753408230E-002
 
          20 0
 s           3   1.00000000000000     
   3.37022769753360       0.273591105889083     
  0.613891182214980       0.264605406538605     
  0.166142911484160       8.246594753408230E-002
 
          21 0
 s           3   1.00000000000000     
   3.37022769753360       0.273591105889083     
  0.613891182214980       0.264605406538605     
  0.166142911484160       8.246594753408230E-002
 
          22 0
 s           3   1.00000000000000     
   3.37022769753360       0.273591105889083     
  0.613891182214980       0.264605406538605     
  0.166142911484160       8.246594753408230E-002
 
          23 0
 s           3   1.00000000000000     
   3.37022769753360       0.273591105889083     
  0.613891182214980       0.264605406538605     
  0.166142911484160       8.246594753408230E-002
 
          24 0
 s           3   1.00000000000000     
   3.37022769753360       0.273591105889083     
  0.613891182214980       0.264605406538605     
  0.166142911484160       8.246594753408230E-002
 
          25 0
 s           3   1.00000000000000     
   3.37022769753360       0.273591105889083     
  0.613891182214980       0.264605406538605     
  0.166142911484160       8.246594753408230E-002
 
          26 0
 s           3   1.00000000000000     
   3.37022769753360       0.273591105889083     
  0.613891182214980       0.264605406538605     
  0.166142911484160       8.246594753408230E-002
 
          27 0
 s           3   1.00000000000000     
   3.37022769753360       0.273591105889083     
  0.613891182214980       0.264605406538605     
  0.166142911484160       8.246594753408230E-002
 
          28 0
 s           3   1.00000000000000     
   3.37022769753360       0.273591105889083     
  0.613891182214980       0.264605406538605     
  0.166142911484160       8.246594753408230E-002
 
          29 0
 s           3   1.00000000000000     
   3.37022769753360       0.273591105889083     
  0.613891182214980       0.264605406538605     
  0.166142911484160       8.246594753408230E-002
 
          30 0
 s           3   1.00000000000000     
   3.37022769753360       0.273591105889083     
  0.613891182214980       0.264605406538605     
  0.166142911484160       8.246594753408230E-002
 
          31 0
 s           3   1.00000000000000     
   3.37022769753360       0.273591105889083     
  0.613891182214980       0.264605406538605     
  0.166142911484160       8.246594753408230E-002
 
          32 0
 s           3   1.00000000000000     
   3.37022769753360       0.273591105889083     
  0.613891182214980       0.264605406538605     
  0.166142911484160       8.246594753408230E-002
 
          33 0
 s           3   1.00000000000000     
   3.37022769753360       0.273591105889083     
  0.613891182214980       0.264605406538605     
  0.166142911484160       8.246594753408230E-002
 
[MO]
Sym=     1a
Ene=  -0.881379050655577     
Spin= Alpha
Occup=     2.00000000
           1  2.505184722695846E-004
           2  1.627787889058842E-004
           3  1.227341483351118E-004
           4  4.671378481946464E-005
           5  1.088732018392199E-003
           6  4.842281772176157E-004
           7 -6.941780873851926E-005
           8 -9.245059750983132E-005
           9  2.465652108237076E-004
          10  1.150699366878044E-004
          11 -5.158847943971802E-005
          12 -1.434652030403013E-004
          13  1.534937174749744E-004
          14  1.143634425487175E-004
          15 -8.220559163679185E-005
          16  3.580374252298648E-005
          17  7.753840264109555E-004
          18 -3.656123836189864E-003
          19  3.869730079003622E-004
          20 -1.598760664666868E-003
          21  1.717255369960617E-003
          22 -6.379196460905894E-004
          23 -3.878327408997784E-004
          24  2.702995888431330E-004
          25 -3.452161092168056E-002
          26 -4.243875471138356E-002
          27 -2.493698576300744E-003
          28  3.531230046587457E-003
          29 -0.229687850242134     
          30 -0.127910475873569     
          31 -4.684596813722739E-003
          32 -8.970758908382168E-002
          33 -0.131394837934011     
          34  7.786286396245906E-004
          35 -8.434816856547597E-002
          36 -4.070774586395805E-002
          37 -0.160979492324431     
          38  7.147351969047769E-002
          39 -0.110068171513364     
          40 -8.826211036077510E-003
          41 -0.518741749751134     
          42  8.785688542839969E-002
          43  8.547756147020193E-003
          44  0.135403710159279     
          45 -0.301230488303808     
          46 -2.804436540887347E-002
          47  0.155307409283021     
          48 -7.436180572056936E-002
          49  2.230000586728473E-005
          50  5.864839328033581E-005
          51 -3.451340658753793E-006
          52  2.585687537147962E-005
          53  8.744181334719102E-005
          54 -6.993064599544072E-007
          55  2.575050171171286E-006
          56  1.961747862666020E-006
          57 -1.311942399026309E-006
          58 -4.463353113288718E-004
          59  5.359947700814088E-004
          60  8.480238920700546E-004
          61 -3.050986697501432E-003
          62 -8.420735951431637E-003
          63 -1.599343361668705E-002
          64 -1.516946770904436E-002
          65 -1.349758277292709E-002
          66 -1.041812229205100E-002
          67 -6.659453415615939E-003
          68 -3.695750374138258E-002
          69 -3.112286352709603E-002
Sym=     2a
Ene=  -0.850991660520368     
Spin= Alpha
Occup=     2.00000000
           1 -1.621830775119423E-003
           2 -2.361971720986602E-003
           3 -1.105807482220844E-003
           4 -1.151374419989867E-004
           5 -7.693121796439314E-003
           6 -1.175510941634503E-002
           7  1.494197458802185E-003
           8  2.307343701779981E-003
           9 -3.653107521700033E-004
          10 -1.285571694893845E-003
          11  2.149943014014991E-004
          12  1.156328859703218E-003
          13  2.359370943943858E-004
          14 -9.561138604137961E-004
          15  4.782151930074830E-004
          16 -9.324394553463762E-005
          17 -9.980466040046940E-002
          18 -5.639964660262372E-002
          19  3.397950242617188E-002
          20  5.851636228580512E-003
          21 -6.021913322560880E-002
          22 -2.346671852679465E-002
          23  1.580191671314505E-002
          24 -5.504732250071987E-002
          25 -0.241315694214878     
          26 -0.102179166758519     
          27 -1.708959771631892E-002
          28  8.769664959960266E-002
          29 -0.493518956258753     
          30  7.426298062622155E-002
          31  2.318434172019220E-002
          32 -4.103605279710196E-002
          33 -0.152877410487327     
          34  8.226869228731018E-002
          35 -8.127977418972872E-002
          36  2.868731448754690E-003
          37  6.155783549567126E-002
          38  1.391554681392844E-002
          39  6.724597896568543E-002
          40  5.183868866760965E-002
          41  0.369706892242234     
          42  2.953627912562622E-002
          43  4.366887293997017E-003
          44 -2.594363287742945E-003
          45 -3.528042991007298E-002
          46  0.142071870678164     
          47  2.536024033041810E-002
          48  0.111654728565692     
          49 -4.598789304157116E-004
          50 -9.369371418629742E-004
          51  1.025567031124473E-005
          52 -6.927514962482425E-005
          53 -2.086629338349008E-004
          54  5.315272435793142E-006
          55  4.012328116469327E-005
          56 -4.535306241406033E-005
          57 -2.587422351875585E-005
          58 -1.964998405196927E-002
          59 -4.828410657074971E-004
          60 -5.488989265077190E-003
          61 -4.793707240580958E-002
          62 -4.021789285690076E-002
          63 -0.124619295498768     
          64 -2.861632501862467E-002
          65 -3.538594451129404E-002
          66  6.189254708320264E-003
          67  5.481439522447203E-003
          68 -1.321585603678499E-002
          69 -1.961092742789432E-002
Sym=     3a
Ene=  -0.829110426653104     
Spin= Alpha
Occup=     2.00000000
           1  9.270428918533611E-003
           2  8.321115596730821E-003
           3  6.286361709830398E-003
           4  1.007982711529080E-003
           5  4.234790098913113E-002
           6  3.652651102680853E-002
           7 -1.659827967301622E-003
           8 -7.888337676090302E-003
           9  6.969162706353539E-003
          10  5.813970695837125E-003
          11 -1.014691900898814E-003
          12 -6.952279872142449E-003
          13  5.156335129904541E-003
          14  6.525670405176763E-003
          15 -3.883348352114445E-003
          16  1.412416475265628E-003
          17  0.229276543375145     
          18  7.280293966357013E-002
          19 -4.940085277099597E-002
          20 -1.722259213457284E-002
          21  0.135431804512847     
          22  7.799103824888498E-003
          23 -1.356785535810557E-002
          24  0.107575806431429     
          25  0.250589395215967     
          26 -4.373331390445410E-003
          27  7.849088390293284E-002
          28 -7.050642863194732E-002
          29 -6.561064074954411E-002
          30 -0.286656274890589     
          31  0.205202788988765     
          32  6.194820968845270E-002
          33 -0.333613894981655     
          34  7.973726689752344E-003
          35 -9.368379151376491E-002
          36 -9.334227954588940E-003
          37 -0.121235198315623     
          38  6.478350051168055E-002
          39  3.076639182923358E-002
          40  7.512107309871503E-002
          41  0.255507421142726     
          42 -2.220703342015104E-002
          43  0.109165638446185     
          44  4.391322989026542E-002
          45  8.909034501255450E-002
          46 -3.558100626007005E-004
          47  5.138492971217348E-002
          48  0.109900605598648     
          49  2.729087955489257E-003
          50  3.209110458498702E-003
          51  3.137233834280348E-004
          52  1.510394837230138E-003
          53  2.488861487942225E-003
          54  1.857297073955942E-004
          55  1.358209874294113E-003
          56  1.172642596570618E-003
          57  1.783574932865416E-004
          58  5.363111503268000E-002
          59  1.337508453455901E-002
          60  2.026480752118660E-002
          61  4.512843991968229E-002
          62  5.440319120818214E-002
          63  5.094349710238535E-002
          64 -8.778931270663584E-002
          65 -7.054046467663851E-002
          66 -2.888297509536195E-002
          67 -2.440392607636033E-002
          68 -2.816042340200599E-003
          69  5.543296121929544E-002
Sym=     4a
Ene=  -0.819256439135548     
Spin= Alpha
Occup=     2.00000000
           1  9.941359531696430E-003
           2  7.489716803936831E-003
           3  5.585909327422161E-003
           4  9.994330867686371E-004
           5  3.519522968310366E-002
           6  2.494657376101940E-002
           7 -2.630045383935417E-003
           8 -6.864944485358709E-003
           9  5.854553824286884E-003
          10  3.898238829793559E-003
          11 -1.068674645934501E-003
          12 -5.749503064119556E-003
          13  5.335197373583266E-003
          14  5.353450556019255E-003
          15 -3.709104376211885E-003
          16  1.225733522135267E-003
          17  0.133704572292169     
          18  2.419995797455552E-002
          19 -3.956605334942737E-002
          20 -1.876219703062316E-002
          21  8.962359183067391E-002
          22 -5.938938730787060E-003
          23 -1.498381242810242E-002
          24  6.183726222046756E-002
          25  0.165943291555620     
          26 -1.504652650405167E-002
          27 -3.378896697194576E-002
          28 -6.095339933168836E-002
          29 -4.033948932025444E-002
          30 -0.192860625932169     
          31 -0.263585196091275     
          32 -4.563784510869193E-002
          33  0.161689589688216     
          34 -2.746021122340433E-002
          35 -1.289256851485197E-002
          36  3.294247858248933E-002
          37  0.236428664728011     
          38 -3.292282751080070E-002
          39  6.383753846889374E-002
          40  6.593001314067966E-002
          41  0.240581372080121     
          42  0.135351977641914     
          43 -0.232682048967627     
          44  8.690604265676032E-002
          45 -0.378419630847363     
          46  7.997355758878844E-002
          47 -5.318075863791885E-003
          48  4.576030213186218E-002
          49  2.969357764136289E-003
          50  4.129970373551233E-003
          51  4.529384082660020E-004
          52  1.062410715295847E-003
          53  2.159259745124764E-003
          54  2.599289842759240E-004
          55  1.535506318646382E-003
          56  1.078692712962052E-003
          57  2.704933491700411E-004
          58  2.171069350006583E-002
          59  9.361203102524817E-003
          60  2.005348253827317E-002
          61  6.780116409690244E-002
          62  2.096187449067199E-002
          63  1.706272658911992E-002
          64  3.544998566883108E-002
          65  6.475208663911164E-002
          66  4.179470918784064E-002
          67  5.889257376472412E-002
          68 -0.112733147169435     
          69 -0.124868207561957     
Sym=     5a
Ene=  -0.796678714681624     
Spin= Alpha
Occup=     2.00000000
           1  4.248022735844452E-002
           2  2.152630442503169E-002
           3  2.879098735364682E-002
           4  1.649901401804043E-003
           5  0.157064424412016     
           6  6.795532499334285E-002
           7  1.122420574394496E-002
           8 -3.604400835297232E-002
           9  2.904865061489073E-002
          10  1.065956979304134E-002
          11 -5.661240081708361E-004
          12 -2.706714466329719E-002
          13  4.775231951527401E-002
          14  3.170269635664780E-002
          15 -2.243702588729200E-002
          16  8.220845056769545E-003
          17  0.332978900529903     
          18 -3.863523490277383E-002
          19  1.648352710171324E-002
          20 -0.127446622892076     
          21  0.344715793793100     
          22 -6.381559772408478E-002
          23  1.943801823981285E-002
          24  0.141261112441266     
          25 -0.175908813141061     
          26 -0.152924634853824     
          27  7.636892419806930E-002
          28 -1.640015196573450E-002
          29 -9.661509928337678E-002
          30  0.210454982463190     
          31  9.948395755238267E-002
          32 -0.148507045571959     
          33  7.760753997845334E-002
          34  9.684943518204810E-002
          35  1.997932495727902E-002
          36 -1.985316669492315E-002
          37  0.106003791812917     
          38 -1.123965179306282E-002
          39 -3.299622099078922E-003
          40 -5.396601077543659E-002
          41 -0.129937877579953     
          42  3.231717413498479E-002
          43 -4.829425762098716E-002
          44 -8.551266049420291E-002
          45  8.276901263218217E-002
          46  1.870703887101592E-002
          47 -6.940179816746635E-003
          48 -0.116074965787604     
          49  1.502219090572110E-002
          50  6.736488876027968E-003
          51  4.547157447084429E-003
          52  6.900731351373070E-003
          53  4.579611931465401E-003
          54  3.069952661679599E-003
          55  1.455274766951508E-002
          56  1.114282005453603E-002
          57  4.348421649496314E-003
          58  9.026253363685807E-002
          59  8.420441637655722E-002
          60  8.264502359192850E-002
          61 -6.207524907590316E-002
          62 -6.316438638882665E-002
          63  4.317984880704046E-002
          64  4.818383060247990E-002
          65 -9.703760624842784E-003
          66  4.027771816206883E-002
          67  2.009778540869590E-002
          68  7.289489350968527E-002
          69  6.203835939399552E-003
Sym=     6a
Ene=  -0.783834925996697     
Spin= Alpha
Occup=     2.00000000
           1 -3.503089228634640E-002
           2 -1.420673930882906E-002
           3 -1.839914416776154E-002
           4 -3.602346975422476E-003
           5 -9.530442294038970E-002
           6 -2.541475316325889E-002
           7  5.330770577083817E-004
           8  1.283455663756674E-002
           9 -2.480509401815008E-002
          10 -6.227136142254505E-003
          11  2.137988058146135E-003
          12  1.876317971749344E-002
          13 -3.019402257262790E-002
          14 -1.602269535379795E-002
          15  1.459746849747201E-002
          16 -6.370628022080833E-003
          17 -8.902484312755243E-002
          18  5.536115231751444E-002
          19  1.257953568314718E-002
          20  2.393619965669193E-002
          21 -7.078293909269437E-002
          22  5.138419971137054E-002
          23  4.221506352695443E-004
          24 -2.000949572977811E-002
          25 -2.365051210677327E-002
          26  4.575667596342234E-002
          27  7.728321103019796E-002
          28 -1.519666826492839E-003
          29  9.130750092431623E-002
          30 -7.880141466925438E-003
          31  0.329239242203255     
          32  2.282098423423618E-002
          33 -0.222621318925957     
          34  0.136900255206245     
          35  9.605762536394944E-003
          36  7.292661437156407E-002
          37  0.295382474299869     
          38  3.150622990193990E-002
          39  7.402918916509403E-002
          40  0.101414277623851     
          41 -7.461464372918278E-002
          42  0.140008207062501     
          43 -0.373925406603474     
          44 -2.917005381574152E-003
          45 -4.181634217090798E-002
          46 -0.164972726087158     
          47 -4.698980315478709E-002
          48 -0.220742929351603     
          49 -1.053444570037594E-002
          50 -1.045829470117562E-002
          51 -4.884463254021011E-003
          52 -5.108876586396739E-003
          53 -6.305413181427857E-003
          54 -3.462963229243149E-003
          55 -8.613010491748415E-003
          56 -6.623214634987453E-003
          57 -4.007383976482337E-003
          58 -1.341822059465717E-002
          59 -2.087475690378643E-002
          60 -3.190894115559253E-002
          61 -5.711540675833119E-002
          62 -3.208905449159648E-003
          63  5.928053841315988E-002
          64 -8.625976200603380E-002
          65 -0.108944688250271     
          66  8.352266372404442E-002
          67  9.851431144323507E-002
          68  1.265491141990513E-002
          69 -2.923131270188221E-002
Sym=     7a
Ene=  -0.777002622744222     
Spin= Alpha
Occup=     2.00000000
           1  6.671645777738740E-002
           2  2.388378536289747E-002
           3  3.667195421994259E-002
           4  1.588908753427698E-002
           5  0.203633113590115     
           6  4.885198397198148E-002
           7 -5.123497499870834E-004
           8  1.212652527566712E-002
           9  8.239554824026436E-002
          10  2.258365362780667E-002
          11 -5.933728108531046E-003
          12 -4.894007510737761E-002
          13  5.593619700112656E-002
          14  2.685049768267363E-002
          15 -2.740739667657122E-002
          16  1.991027783023019E-002
          17  0.151231566681435     
          18 -7.001652673937499E-002
          19 -2.549044622500910E-002
          20  0.138798043419172     
          21 -0.207560826894952     
          22 -6.420306639916767E-002
          23  1.943146906589099E-002
          24  7.057311816104978E-003
          25  0.225555886593247     
          26 -5.183814051085373E-002
          27  3.098281279574717E-002
          28  0.112059366829536     
          29 -0.182207725642050     
          30  6.186213151324190E-002
          31  3.637108166762582E-002
          32  0.313972547261190     
          33  6.294165310218972E-002
          34  0.106255779865596     
          35 -5.352844079491705E-002