37
 energy: -45.271502867967 gnorm: 0.000394801378 xtb: 6.7.1 (edcfbbe)
C            1.50154544694110       -0.11794716353435       -2.25392588418685
N            1.20306711894773       -0.19605556343663       -0.81597092710948
C           -0.00955270068223        0.56078955982812       -0.42159554866134
C           -1.19353890039593       -0.43469532458513       -0.52128673599046
N           -0.63455969629588       -1.72899038773046       -0.11300936177058
C           -2.46247892650871        0.01945422511743        0.24613931374035
C           -3.59070726301279       -0.96797673809963       -0.07602318783078
C           -2.24866062942391        0.05125372474066        1.76175086815040
C           -2.86801743098095        1.41333708630034       -0.24092473756629
C            2.38526213034264        0.09831293207124       -0.01217085539516
C            2.90075461493422        1.38305192335394        0.05448744116937
C            4.03682770488200        1.57930041794532        0.83328812267680
N            4.62986092127999        0.60953247962067        1.49879282219532
C            4.13315363496846       -0.60827859954213        1.43280745465341
C            3.00231431494199       -0.92619310473674        0.68634239415615
H            0.62534344983591       -0.40472065155496       -2.83042457575637
H            1.79458515200499        0.89490646303576       -2.52701292486404
H            2.32018122167027       -0.79449174638147       -2.49364396290459
H            0.81439753843837       -1.19225733502232       -0.57089114534130
H            0.11646582688416        0.89309447757015        0.60965442422416
H           -0.15891405005721        1.42743919742585       -1.06226479320481
H           -1.47073860410882       -0.52655219380735       -1.57785200451908
H           -0.67491313873677       -1.83677386306696        0.89621075311545
H           -1.13179049131609       -2.50561674167692       -0.53079795444717
H           -4.50449044828359       -0.66007109488497        0.42311620140879
H           -3.35237369508961       -1.97336106133038        0.26480156992187
H           -3.78645256869810       -0.99925154242971       -1.14543296780149
H           -3.15614875970464        0.41092018211841        2.23784103606191
H           -1.44230182824024        0.72111798153096        2.05044721026479
H           -2.04628059848738       -0.93855170142926        2.16659089701330
H           -3.84211871522718        1.67151677631307        0.16401078957008
H           -2.16202798784169        2.17164473078673        0.08674515886788
H           -2.93991729362853        1.44203343801226       -1.32557225611373
H            2.44544120350439        2.20795632055075       -0.46921294791047
H            4.48504843642281        2.55835786718316        0.92246068854180
H            4.65666236313637       -1.36561725785066        1.99828146595460
H            2.62507264758488       -1.93661771240566        0.65424415968804
