48
 energy: -67.034367720087 gnorm: 0.000521880862 xtb: 6.7.1 (edcfbbe)
C            3.73045707840804       -1.93475315743257       -0.17650382565493
C            3.63312425441096       -0.40684460743144       -0.17493148574370
C            4.75476611926122        0.16566942070714       -1.04980602437620
C            3.80323524737083        0.11144571423994        1.25535334273358
C            2.27681760523347        0.01173024824150       -0.79773475278771
N            2.00508251473453        1.45515604048109       -0.81677417274732
C            1.03960077787709       -0.60860737538960       -0.10074232590370
N           -0.11151537834926        0.20160887280304       -0.54848840436145
C           -1.21461458761956        0.41565662873953        0.42664652447082
C           -1.90053165252263       -0.87466026288354        0.81463142798740
C           -2.01014282236157       -1.96018023501749       -0.04752671080650
C           -2.68867798537540       -3.10166220018835        0.33903225636261
C           -3.27279785425323       -3.16123083491213        1.59509639883710
Br          -4.20557690162819       -4.72961260457047        2.12499850687375
C           -3.17695950564166       -2.08508414336826        2.46564389796755
C           -2.49189872458258       -0.95255097027681        2.07150220563869
C           -2.19542147343571        1.40748171182856       -0.16659781674825
C           -2.21597854615368        2.72084811182006        0.28774932179642
C           -3.09888313369318        3.63835482013354       -0.24956115999308
C           -3.96717279037195        3.24085046680410       -1.25599319764499
Br          -5.17881961304614        4.49710842012125       -2.00591451626001
C           -3.95997898709867        1.93217475955195       -1.71870437397485
C           -3.07635808789654        1.02209759007253       -1.17199538129910
H            3.03506022085016       -2.37917382440647        0.53031925489337
H            4.73328415886474       -2.23636521804037        0.11101515911748
H            3.53246498516300       -2.33685654207993       -1.16704835625507
H            4.73908968673534        1.25343921207258       -1.05977149572176
H            4.67108498600310       -0.19385933562699       -2.07278454577129
H            5.72036916126341       -0.14566989462277       -0.66323390563587
H            3.80695852364161        1.19893642976087        1.29931968193323
H            3.03292634044546       -0.26715919489436        1.92252207664702
H            4.76091569215866       -0.22627418745690        1.64035247509841
H            2.27778925367714       -0.32602395017172       -1.84062203329935
H            2.32788505879505        1.89605231303826        0.03931634460866
H            2.45405479088091        1.91836242297870       -1.59681391543101
H            1.12406415194597       -0.50700917073663        0.98124732919614
H            0.91990044537721       -1.66124510751785       -0.34492802206790
H           -0.50932832587499       -0.15763941950023       -1.41839571939616
H            0.46170014912580        1.12341685488419       -0.76857147149762
H           -0.76560121630171        0.86034315306552        1.32105823902710
H           -1.57350768257689       -1.94671569009223       -1.03656503802462
H           -2.76811461181920       -3.94117683044321       -0.33312253337686
H           -3.63350233270959       -2.13519327485411        3.44100240741183
H           -2.42303933833815       -0.11436471809529        2.74820903309013
H           -1.54562125583060        3.03387647355133        1.07441672168572
H           -3.11679712465564        4.65477956141932        0.10961112515749
H           -4.64451313630072        1.62998074720259       -2.49498620176469
H           -3.09527813378909        0.00054277649068       -1.52092634398867
