34
 energy: -39.991100869274 gnorm: 0.000733476455 xtb: 6.7.1 (edcfbbe)
C            4.59025833510608       -1.06770517903564       -0.91584574150591
N            3.47918044047898       -0.19548793844334       -0.64513665659776
C            3.58508650061885        1.06900841671343       -0.15030015566400
C            2.32557338603329        1.57687879628503       -0.05786516451111
N            1.46324121532378        0.61178752099256       -0.49906304292041
C            0.02725121179920        0.73993694334193       -0.64363860119295
C           -0.77811455114639        0.16447349429145        0.53464676724632
N           -0.97974608835541        1.21288456718909        1.59013431866914
C           -2.17796936285987       -0.39595798099790        0.12916795048212
C           -1.97884850290179       -1.64158313637721       -0.73876903993139
C           -2.92756092376699       -0.81065783426788        1.40435851055167
C           -2.99653825964488        0.64845010634162       -0.63084067464122
C            2.19628974491498       -0.45389413544690       -0.85074867567503
H            4.23635132742297       -2.04552476797485       -1.23423066077547
H            5.21450965261707       -0.64281404740745       -1.70364771632241
H            5.20506810901331       -1.18060092801949       -0.02203751977272
H            4.52704763804548        1.52022380741782        0.09279583779961
H            2.01013321218607        2.55255125668674        0.25185681375763
H           -0.26193311465379        0.20619057872300       -1.55168004662989
H           -0.20764674486114        1.79636872783459       -0.79382355900398
H           -0.20988468779707       -0.65142779436077        0.99501133211661
H           -1.56597523776123        0.78951615204914        2.33122785196938
H           -0.10811378612653        1.56172198545051        2.00474976759938
H           -1.51364868063752        2.00194819377613        1.19520989355553
H           -2.94561672489238       -2.08254219970447       -0.96153139656426
H           -1.38855591756888       -2.39198225638684       -0.21903979515334
H           -1.51002195455830       -1.41825348568489       -1.69291944330594
H           -3.77436052399775       -1.43354236930246        1.12856804271957
H           -2.30468648387641       -1.40920007801126        2.06605707721697
H           -3.34893915952076        0.03501653112408        1.94564245357646
H           -3.97339737060805        0.23111227109950       -0.85814904878226
H           -2.53984751622485        0.92015928505701       -1.57795960622208
H           -3.17144009052980        1.55305169300738       -0.05088121212184
H            1.80285490872285       -1.37010619597333       -1.24992376508025
