[Molden Format]
[Title]
[Atoms] AU
C      1     6 -0.58047902824118E+01  0.12231738639661E+01  0.15728312676523E+01
C      2     6 -0.48957782887145E+01 -0.32315745867715E+00 -0.69678787462011E+00
C      3     6 -0.54292214230386E+01  0.11457336797141E+01 -0.31321331208658E+01
C      4     6 -0.63518822685234E+01 -0.28278415211592E+01 -0.77164228169311E+00
C      5     6 -0.20322483507228E+01 -0.94160139988661E+00 -0.56092977438396E+00
N      6     7 -0.12000293788980E+01 -0.23207806792944E+01  0.16938208054320E+01
C      7     6 -0.30689016876012E+00  0.14195856617765E+01 -0.68445561530710E+00
N      8     7  0.22268474116805E+01  0.60904727432372E+00  0.17027168107720E+00
C      9     6  0.36001931549501E+01  0.24788981051310E+01  0.17186909095939E+01
C     10     6  0.59404633907996E+01  0.12678859729584E+01  0.28805931993464E+01
C     11     6  0.76643659152234E+01  0.22814935720989E+00  0.81758948034330E+00
C     12     6  0.61865678298515E+01 -0.16116759858553E+01 -0.83764383795409E+00
C     13     6  0.38447522408251E+01 -0.32313770918412E+00 -0.19062352213978E+01
H     14     1 -0.78249969274051E+01  0.15411041472172E+01  0.13971252213019E+01
H     15     1 -0.54983889626634E+01  0.23882803191878E+00  0.33526332465570E+01
H     16     1 -0.48998065547865E+01  0.30654491935555E+01  0.16660803882183E+01
H     17     1 -0.74561485670621E+01  0.13218540267674E+01 -0.34008779553185E+01
H     18     1 -0.46588022320163E+01  0.16806453079594E+00 -0.47669656829036E+01
H     19     1 -0.46419024649689E+01  0.30407398766981E+01 -0.30576328355947E+01
H     20     1 -0.57526368023313E+01 -0.39780970447430E+01 -0.23663975294344E+01
H     21     1 -0.60869839043565E+01 -0.39075561118994E+01  0.95781295922770E+00
H     22     1 -0.83609318803181E+01 -0.24628120200416E+01 -0.97361963752709E+00
H     23     1 -0.15948808617610E+01 -0.21442513898642E+01 -0.21898612038539E+01
H     24     1 -0.20666180407274E+01 -0.16401333668907E+01  0.32652483891489E+01
H     25     1 -0.16043426498039E+01 -0.41856669523882E+01  0.15698360155939E+01
H     26     1 -0.10063011453254E+01  0.28619624898426E+01  0.60873829020649E+00
H     27     1 -0.22352270523717E+00  0.22057494111252E+01 -0.25827797948602E+01
H     28     1  0.16570679683567E+01 -0.96854182781044E+00  0.13207552452346E+01
H     29     1  0.41345061842796E+01  0.40683965186797E+01  0.51258250701867E+00
H     30     1  0.23431253649244E+01  0.31664292735268E+01  0.32021382712805E+01
H     31     1  0.69357772223168E+01  0.26791042369663E+01  0.40008417131842E+01
H     32     1  0.53710767691854E+01 -0.25584404514917E+00  0.41505501552111E+01
H     33     1  0.83874943864562E+01  0.17774042015757E+01 -0.33471519170613E+00
H     34     1  0.92771491217221E+01 -0.72683514815278E+00  0.16654029954091E+01
H     35     1  0.56268636031649E+01 -0.32598634146195E+01  0.27048138203987E+00
H     36     1  0.73576920036473E+01 -0.22712890978659E+01 -0.23966123558409E+01
H     37     1  0.27555606496350E+01 -0.16445541544501E+01 -0.30525339106657E+01
H     38     1  0.43876006428138E+01  0.12860794741822E+01 -0.30822002991505E+01
[GTO]
           1 0
 s           4   1.00000000000000     
   51.0493630955799      -0.163120632101274     
   8.79112274068875      -0.199110245810007     
  0.706404222589298       0.318820477536558     
  0.269228134134116       0.127065041842404     
 p           4   1.00000000000000     
   5.82636561408000       0.737164515452096     
   1.51068960187200       0.682163716148503     
  0.532564832880000       0.357830539292537     
  0.212023236906000       5.398303027584788E-002
 
           2 0
 s           4   1.00000000000000     
   51.0493630955799      -0.163120632101274     
   8.79112274068875      -0.199110245810007     
  0.706404222589298       0.318820477536558     
  0.269228134134116       0.127065041842404     
 p           4   1.00000000000000     
   5.82636561408000       0.737164515452096     
   1.51068960187200       0.682163716148503     
  0.532564832880000       0.357830539292537     
  0.212023236906000       5.398303027584788E-002
 
           3 0
 s           4   1.00000000000000     
   51.0493630955799      -0.163120632101274     
   8.79112274068875      -0.199110245810007     
  0.706404222589298       0.318820477536558     
  0.269228134134116       0.127065041842404     
 p           4   1.00000000000000     
   5.82636561408000       0.737164515452096     
   1.51068960187200       0.682163716148503     
  0.532564832880000       0.357830539292537     
  0.212023236906000       5.398303027584788E-002
 
           4 0
 s           4   1.00000000000000     
   51.0493630955799      -0.163120632101274     
   8.79112274068875      -0.199110245810007     
  0.706404222589298       0.318820477536558     
  0.269228134134116       0.127065041842404     
 p           4   1.00000000000000     
   5.82636561408000       0.737164515452096     
   1.51068960187200       0.682163716148503     
  0.532564832880000       0.357830539292537     
  0.212023236906000       5.398303027584788E-002
 
           5 0
 s           4   1.00000000000000     
   51.0493630955799      -0.163120632101274     
   8.79112274068875      -0.199110245810007     
  0.706404222589298       0.318820477536558     
  0.269228134134116       0.127065041842404     
 p           4   1.00000000000000     
   5.82636561408000       0.737164515452096     
   1.51068960187200       0.682163716148503     
  0.532564832880000       0.357830539292537     
  0.212023236906000       5.398303027584788E-002
 
           6 0
 s           4   1.00000000000000     
   63.5940244669410      -0.192343884147216     
   10.9514172315237      -0.234781079249537     
  0.879993102573770       0.375937539017009     
  0.335387152965211       0.149828892718628     
 p           4   1.00000000000000     
   7.29650404814951       0.976586663156674     
   1.89187454507126       0.903722267303458     
  0.666944321108241       0.474049584615364     
  0.265522026741309       7.151606771501186E-002
 
           7 0
 s           4   1.00000000000000     
   51.0493630955799      -0.163120632101274     
   8.79112274068875      -0.199110245810007     
  0.706404222589298       0.318820477536558     
  0.269228134134116       0.127065041842404     
 p           4   1.00000000000000     
   5.82636561408000       0.737164515452096     
   1.51068960187200       0.682163716148503     
  0.532564832880000       0.357830539292537     
  0.212023236906000       5.398303027584788E-002
 
           8 0
 s           4   1.00000000000000     
   63.5940244669410      -0.192343884147216     
   10.9514172315237      -0.234781079249537     
  0.879993102573770       0.375937539017009     
  0.335387152965211       0.149828892718628     
 p           4   1.00000000000000     
   7.29650404814951       0.976586663156674     
   1.89187454507126       0.903722267303458     
  0.666944321108241       0.474049584615364     
  0.265522026741309       7.151606771501186E-002
 
           9 0
 s           4   1.00000000000000     
   51.0493630955799      -0.163120632101274     
   8.79112274068875      -0.199110245810007     
  0.706404222589298       0.318820477536558     
  0.269228134134116       0.127065041842404     
 p           4   1.00000000000000     
   5.82636561408000       0.737164515452096     
   1.51068960187200       0.682163716148503     
  0.532564832880000       0.357830539292537     
  0.212023236906000       5.398303027584788E-002
 
          10 0
 s           4   1.00000000000000     
   51.0493630955799      -0.163120632101274     
   8.79112274068875      -0.199110245810007     
  0.706404222589298       0.318820477536558     
  0.269228134134116       0.127065041842404     
 p           4   1.00000000000000     
   5.82636561408000       0.737164515452096     
   1.51068960187200       0.682163716148503     
  0.532564832880000       0.357830539292537     
  0.212023236906000       5.398303027584788E-002
 
          11 0
 s           4   1.00000000000000     
   51.0493630955799      -0.163120632101274     
   8.79112274068875      -0.199110245810007     
  0.706404222589298       0.318820477536558     
  0.269228134134116       0.127065041842404     
 p           4   1.00000000000000     
   5.82636561408000       0.737164515452096     
   1.51068960187200       0.682163716148503     
  0.532564832880000       0.357830539292537     
  0.212023236906000       5.398303027584788E-002
 
          12 0
 s           4   1.00000000000000     
   51.0493630955799      -0.163120632101274     
   8.79112274068875      -0.199110245810007     
  0.706404222589298       0.318820477536558     
  0.269228134134116       0.127065041842404     
 p           4   1.00000000000000     
   5.82636561408000       0.737164515452096     
   1.51068960187200       0.682163716148503     
  0.532564832880000       0.357830539292537     
  0.212023236906000       5.398303027584788E-002
 
          13 0
 s           4   1.00000000000000     
   51.0493630955799      -0.163120632101274     
   8.79112274068875      -0.199110245810007     
  0.706404222589298       0.318820477536558     
  0.269228134134116       0.127065041842404     
 p           4   1.00000000000000     
   5.82636561408000       0.737164515452096     
   1.51068960187200       0.682163716148503     
  0.532564832880000       0.357830539292537     
  0.212023236906000       5.398303027584788E-002
 
          14 0
 s           3   1.00000000000000     
   3.37022769753360       0.273591105889083     
  0.613891182214980       0.264605406538605     
  0.166142911484160       8.246594753408230E-002
 
          15 0
 s           3   1.00000000000000     
   3.37022769753360       0.273591105889083     
  0.613891182214980       0.264605406538605     
  0.166142911484160       8.246594753408230E-002
 
          16 0
 s           3   1.00000000000000     
   3.37022769753360       0.273591105889083     
  0.613891182214980       0.264605406538605     
  0.166142911484160       8.246594753408230E-002
 
          17 0
 s           3   1.00000000000000     
   3.37022769753360       0.273591105889083     
  0.613891182214980       0.264605406538605     
  0.166142911484160       8.246594753408230E-002
 
          18 0
 s           3   1.00000000000000     
   3.37022769753360       0.273591105889083     
  0.613891182214980       0.264605406538605     
  0.166142911484160       8.246594753408230E-002
 
          19 0
 s           3   1.00000000000000     
   3.37022769753360       0.273591105889083     
  0.613891182214980       0.264605406538605     
  0.166142911484160       8.246594753408230E-002
 
          20 0
 s           3   1.00000000000000     
   3.37022769753360       0.273591105889083     
  0.613891182214980       0.264605406538605     
  0.166142911484160       8.246594753408230E-002
 
          21 0
 s           3   1.00000000000000     
   3.37022769753360       0.273591105889083     
  0.613891182214980       0.264605406538605     
  0.166142911484160       8.246594753408230E-002
 
          22 0
 s           3   1.00000000000000     
   3.37022769753360       0.273591105889083     
  0.613891182214980       0.264605406538605     
  0.166142911484160       8.246594753408230E-002
 
          23 0
 s           3   1.00000000000000     
   3.37022769753360       0.273591105889083     
  0.613891182214980       0.264605406538605     
  0.166142911484160       8.246594753408230E-002
 
          24 0
 s           3   1.00000000000000     
   3.37022769753360       0.273591105889083     
  0.613891182214980       0.264605406538605     
  0.166142911484160       8.246594753408230E-002
 
          25 0
 s           3   1.00000000000000     
   3.37022769753360       0.273591105889083     
  0.613891182214980       0.264605406538605     
  0.166142911484160       8.246594753408230E-002
 
          26 0
 s           3   1.00000000000000     
   3.37022769753360       0.273591105889083     
  0.613891182214980       0.264605406538605     
  0.166142911484160       8.246594753408230E-002
 
          27 0
 s           3   1.00000000000000     
   3.37022769753360       0.273591105889083     
  0.613891182214980       0.264605406538605     
  0.166142911484160       8.246594753408230E-002
 
          28 0
 s           3   1.00000000000000     
   3.37022769753360       0.273591105889083     
  0.613891182214980       0.264605406538605     
  0.166142911484160       8.246594753408230E-002
 
          29 0
 s           3   1.00000000000000     
   3.37022769753360       0.273591105889083     
  0.613891182214980       0.264605406538605     
  0.166142911484160       8.246594753408230E-002
 
          30 0
 s           3   1.00000000000000     
   3.37022769753360       0.273591105889083     
  0.613891182214980       0.264605406538605     
  0.166142911484160       8.246594753408230E-002
 
          31 0
 s           3   1.00000000000000     
   3.37022769753360       0.273591105889083     
  0.613891182214980       0.264605406538605     
  0.166142911484160       8.246594753408230E-002
 
          32 0
 s           3   1.00000000000000     
   3.37022769753360       0.273591105889083     
  0.613891182214980       0.264605406538605     
  0.166142911484160       8.246594753408230E-002
 
          33 0
 s           3   1.00000000000000     
   3.37022769753360       0.273591105889083     
  0.613891182214980       0.264605406538605     
  0.166142911484160       8.246594753408230E-002
 
          34 0
 s           3   1.00000000000000     
   3.37022769753360       0.273591105889083     
  0.613891182214980       0.264605406538605     
  0.166142911484160       8.246594753408230E-002
 
          35 0
 s           3   1.00000000000000     
   3.37022769753360       0.273591105889083     
  0.613891182214980       0.264605406538605     
  0.166142911484160       8.246594753408230E-002
 
          36 0
 s           3   1.00000000000000     
   3.37022769753360       0.273591105889083     
  0.613891182214980       0.264605406538605     
  0.166142911484160       8.246594753408230E-002
 
          37 0
 s           3   1.00000000000000     
   3.37022769753360       0.273591105889083     
  0.613891182214980       0.264605406538605     
  0.166142911484160       8.246594753408230E-002
 
          38 0
 s           3   1.00000000000000     
   3.37022769753360       0.273591105889083     
  0.613891182214980       0.264605406538605     
  0.166142911484160       8.246594753408230E-002
 
[MO]
Sym=     1a
Ene=  -0.844330031850950     
Spin= Alpha
Occup=     2.00000000
           1 -6.018155739436500E-004
           2 -1.329155883898910E-003
           3  2.867348170639050E-004
           4  3.623782249440993E-004
           5 -3.202074339107532E-003
           6 -7.441328490493609E-003
           7 -4.604808421101264E-004
           8 -1.086552181090518E-003
           9  6.794113712164514E-005
          10 -8.659390696631392E-004
          11  2.196775679117967E-004
          12 -4.545825445767099E-004
          13  6.571039342029356E-004
          14 -3.046871482793603E-004
          15 -7.125679460795323E-005
          16 -4.414023285955405E-005
          17 -6.880489170038664E-002
          18 -4.674565283251540E-002
          19 -2.356781962306270E-002
          20 -1.083185576605812E-002
          21 -3.267300372839489E-002
          22 -1.398399337586954E-002
          23 -2.911703025481415E-002
          24  2.414143253627475E-002
          25 -0.226512651456300     
          26 -0.124650274622037     
          27  4.702713094384007E-002
          28 -4.052698310920214E-002
          29 -0.554058151422593     
          30  3.761690289049701E-003
          31 -5.757118395502289E-002
          32  5.100118715019661E-002
          33 -0.195564253861644     
          34  6.169852169227574E-002
          35  8.556757520063786E-002
          36  8.054900702803985E-002
          37 -4.125960282833516E-002
          38  3.043728334915365E-002
          39 -7.669538008055014E-004
          40  2.505208229510136E-002
          41 -1.977077374340039E-002
          42  1.858381852417898E-002
          43 -1.157568781170178E-003
          44  2.196828649254198E-003
          45 -4.164909404790729E-002
          46  3.265202175854914E-002
          47 -2.256107205984676E-002
          48 -2.883610786129222E-003
          49 -0.198532989051393     
          50  7.513119098991623E-002
          51 -5.188452166625081E-002
          52 -9.789423501197994E-002
          53  2.819110609145758E-005
          54 -1.459531723273201E-004
          55 -6.577294472002455E-004
          56  2.781470882022987E-005
          57 -1.819412043770808E-005
          58 -7.513367110345085E-005
          59  1.705838602854533E-005
          60  9.187588852070070E-005
          61 -9.287645909063796E-006
          62 -1.418128658008663E-002
          63 -1.934679597309757E-003
          64  1.905742019881221E-003
          65 -4.352793061275254E-002
          66 -4.328938828888160E-002
          67 -0.116329876770779     
          68 -3.827531785229121E-002
          69 -3.672781291461789E-002
          70 -2.719713277576447E-003
          71 -7.904935508269047E-003
          72 -2.955014578025728E-003
          73 -8.916996747907721E-004
          74 -8.010621633518029E-003
          75 -2.762082872815632E-003
          76 -3.746718840892634E-002
          77 -3.889967311546592E-002
Sym=     2a
Ene=  -0.818651464756837     
Spin= Alpha
Occup=     2.00000000
           1 -1.031873864125113E-002
           2 -9.042836834391941E-003
           3  4.083002668107120E-003
           4  5.428555136776342E-003
           5 -4.413930541634516E-002
           6 -3.864701785606008E-002
           7  3.180320108624762E-004
           8 -5.066427349472213E-003
           9 -8.374133635415231E-003
          10 -7.204510639710776E-003
          11  3.234991784521921E-003
          12 -6.639693581188837E-003
          13 -4.570368741868401E-003
          14 -6.183973099129876E-003
          15 -4.141783894288410E-003
          16 -7.118692653411358E-004
          17 -0.235358245262071     
          18 -8.135801400294000E-002
          19 -5.016080828657993E-002
          20 -3.398805968815426E-002
          21 -0.116747120156969     
          22 -1.036604044754091E-003
          23 -7.307753892860108E-002
          24  7.489383546077331E-002
          25 -0.338504576526658     
          26 -2.161400536360582E-002
          27  9.477072629341300E-002
          28 -3.853344983765791E-002
          29  3.908495162021266E-002
          30  0.382127291542068     
          31  3.727152916304556E-002
          32  6.732346923401861E-002
          33  0.234479541903232     
          34  3.887580811642477E-002
          35 -8.310345309916557E-002
          36 -4.481034580486058E-002
          37  0.124223026143018     
          38 -5.149628209946955E-002
          39  5.020877918030067E-003
          40 -5.305425292574454E-002
          41  7.155983948743933E-002
          42 -4.758211597036250E-002
          43  2.749314394170703E-003
          44 -2.253418402647847E-003
          45  0.104861202036945     
          46 -4.144641207756285E-002
          47  4.411711356366611E-002
          48  8.276261724198895E-003
          49  0.160552152785565     
          50  5.041579874389473E-002
          51  2.607193988941664E-002
          52  8.115543762035571E-002
          53 -3.375257540258111E-004
          54 -2.618562525394651E-003
          55 -4.577638679241438E-003
          56 -2.120073066409377E-004
          57 -1.957027166894464E-003
          58 -3.314935647914199E-003
          59 -1.078363343577191E-003
          60 -1.177847838947718E-003
          61 -1.605565401835784E-004
          62 -5.247689554202518E-002
          63 -1.817078577979496E-002
          64 -7.828196264914758E-003
          65 -7.849407403777107E-002
          66 -7.194806611316498E-002
          67 -3.514724823160566E-002
          68  5.618849354538764E-002
          69  3.528154990624616E-002
          70  1.695795907914288E-002
          71  2.590109238556827E-002
          72  1.407274509091203E-002
          73  6.714826541738693E-003
          74  2.126297315613055E-002
          75  1.394666583619491E-002
          76  1.043681785377666E-002
          77  4.086883986259193E-002
Sym=     3a
Ene=  -0.805160441486079     
Spin= Alpha
Occup=     2.00000000
           1  1.817647607713067E-003
           2  1.089045729767765E-003
           3  3.433107223546133E-004
           4 -8.028495946771262E-005
           5 -2.210712124396022E-003
           6 -2.311032901897852E-003
           7  2.184078770992137E-003
           8  1.966002436559150E-003
           9 -1.062900203770134E-003
          10 -8.264180593283475E-004
          11  6.962645053144581E-004
          12 -1.719195069939839E-004
          13 -1.029862666415085E-003
          14 -9.360575993781768E-004
          15 -3.241257667416520E-004
          16  2.005141917139430E-004
          17 -2.283623309900744E-002
          18 -1.066593214141424E-002
          19  1.035329083272594E-002
          20  1.258599520981722E-002
          21 -6.284762581038193E-003
          22 -6.194256737382775E-004
          23  4.287875825814783E-003
          24  1.235109730441484E-002
          25  5.068487274900286E-002
          26  1.043315283102497E-002
          27  5.747277913498294E-002
          28  8.232320476225662E-002
          29  1.403313087256395E-002
          30 -8.430005866475042E-002
          31  0.277056414010211     
          32  0.331436654510413     
          33  0.325906212246788     
          34 -8.088065358937445E-002
          35 -4.525175862961279E-002
          36 -2.243708968906821E-003
          37  8.771294133631100E-002
          38 -6.234781331198400E-002
          39  2.729197510238641E-002
          40 -1.530481288136187E-002
          41 -1.831996898722513E-002
          42  8.733721120833132E-003
          43  1.945756645120774E-002
          44  2.569470304790797E-002
          45 -0.139526399713142     
          46  7.759596031554732E-002
          47 -3.615487316220017E-002
          48  2.395891177164871E-002
          49 -0.382411367369329     
          50  5.599499087609597E-002
          51  1.586809553534567E-002
          52 -6.269262099723640E-002
          53  4.779605643437416E-005
          54  4.440992941031050E-004
          55  2.166783107582562E-003
          56 -4.668773075983478E-005
          57 -6.616507573393119E-004
          58  6.979954764263370E-005
          59 -4.155130500530241E-004
          60 -1.948767829238052E-004
          61 -3.338745792269413E-005
          62 -1.821731634249362E-002
          63  4.283205343030815E-003
          64 -3.324565381173272E-003
          65  5.593198803939698E-002
          66 -8.302917900704733E-003
          67  8.609483422197992E-004
          68  7.464632835835087E-002
          69  0.115314412392457     
          70  1.726976573640418E-002
          71  2.146242933551321E-002
          72 -3.858780833964081E-003
          73 -2.238437021816629E-003
          74 -3.320903847288566E-002
          75 -2.571298206889041E-002
          76 -0.120673678595155     
          77 -8.834453247598756E-002
Sym=     4a
Ene=  -0.786710255308328     
Spin= Alpha
Occup=     2.00000000
           1 -5.106974427545788E-002
           2 -2.551088521020315E-002
           3  2.291790937740883E-002
           4  2.366567194525326E-002
           5 -0.178683292744746     
           6 -7.952060956825721E-002
           7  2.275416481123953E-002
           8 -1.799573874346292E-002
           9 -3.880866098667688E-002
          10 -1.614498006864437E-002
          11  1.744452546359668E-002
          12 -2.677760935813463E-002
          13 -5.016715657154305E-002
          14 -3.272244123008779E-002
          15 -2.640181729399120E-002
          16 -4.640897522902753E-003
          17 -0.377417537831623     
          18  1.603344056347585E-002
          19  4.641782376540775E-002
          20 -8.717478126896593E-002
          21 -0.298849125857537     
          22  6.137836145417354E-002
          23 -8.451704683352193E-002
          24  0.127494622254569     
          25  6.261017873104170E-002
          26  0.167389159276352     
          27  8.288441695364711E-002
          28 -1.147053373432981E-002
          29  0.125628239138907     
          30 -0.122743807177081     
          31  0.103415097110414     
          32 -0.130216498555356     
          33 -0.111113268201509     
          34 -8.205098535180654E-002
          35  4.052894789227904E-002
          36 -5.107844504611590E-002
          37 -0.171066581516984     
          38  3.037064537067858E-002
          39  1.093445884982805E-003
          40  4.529594338810930E-002
          41 -0.122056510091496     
          42  5.357927454514387E-002
          43  6.920017142639192E-004
          44 -5.883769164309228E-003
          45 -0.128583039165305     
          46  1.518208634532337E-002
          47 -3.371700994418376E-002
          48 -1.894687051753688E-002
          49 -2.549659722301213E-002
          50 -8.296843041183367E-002
          51  4.749449808317021E-002
          52 -2.575205588930627E-002
          53 -5.620878672373452E-003
          54 -1.580240455087535E-002
          55 -1.150187090533431E-002
          56 -4.197176476467778E-003
          57 -9.409653144609710E-003
          58 -8.139939260195652E-003
          59 -1.166688719582323E-002
          60 -1.433807385474725E-002
          61 -4.959762196192638E-003
          62 -9.817404574705302E-002
          63 -6.802559806921968E-002
          64 -6.216937632102294E-002
          65  1.553787861584227E-002
          66  4.009265196450629E-002
          67 -4.595035082330849E-002
          68 -1.865228075371196E-002
          69 -2.605102374926102E-002
          70 -3.633126109780951E-002
          71 -4.589199413236923E-002
          72 -2.703577515903253E-002
          73 -2.101618878665617E-002
          74 -3.523173804540768E-002
          75 -2.604766266330628E-002
          76 -1.492258502815282E-003
          77  4.536631399778347E-003
Sym=     5a
Ene=  -0.766238710520038     
Spin= Alpha
Occup=     2.00000000
           1 -5.460021787995892E-002
           2 -1.742742523614791E-002
           3  1.184304723278248E-002
           4  2.830196898182937E-002
           5 -0.147763249132032     
           6 -2.799556974865325E-002
           7 -1.929542151746746E-002
           8  1.392345299893988E-002
           9 -7.280525268253848E-002
          10 -2.148530528429336E-002
          11  1.630585271189017E-002
          12 -3.347085217533367E-002
          13 -3.662403409545058E-002
          14 -1.508973154437582E-002
          15 -2.519543321438731E-002
          16  2.062072101286781E-003
          17 -6.027567301995988E-002
          18  6.183250313296647E-002
          19 -0.114546687530456     
          20  9.087212433047849E-002
          21  0.205432653946787     
          22  3.533340615183610E-002
          23  2.243728118904077E-002
          24 -2.563219787841513E-002
          25 -0.275557740478277     
          26  4.521187898470861E-002
          27 -9.075625401225147E-002
          28  8.445280104798399E-002
          29  0.202843954153691     
          30  8.921227517778256E-003
          31 -0.254568658754312     
          32  0.197484635288387     
          33 -9.505137512016699E-002
          34 -5.707214584419797E-002
          35 -8.558482351373810E-002
          36  2.751083196370075E-002
          37 -0.112678852082577     
          38 -2.014684015811290E-002
          39 -1.511560447274127E-002
          40  3.877748961696261E-002
          41 -0.138774380830995     
          42  3.642659493065706E-002
          43 -3.187378876790548E-003
          44  5.111640856239298E-003
          45 -0.113125843102866     
          46 -1.758196687761100E-002
          47 -4.323406513403148E-002
          48  3.867650033337664E-003
          49 -9.881731913083815E-002
          50 -5.996819928052797E-002
          51 -5.384730310151178E-002
          52  7.231352014223459E-002
          53 -9.884715354932180E-003
          54 -8.673068808332443E-003
          55 -2.087890465996330E-002
          56 -1.109580100603993E-002
          57 -1.865465458733008E-002
          58 -2.572009170816748E-002
          59 -8.496336828248116E-003
          60 -4.917642733495905E-003
          61 -7.052794258495089E-003
          62 -2.246518922015814E-002
          63  4.659128387891733E-002
          64  4.969509484939877E-002
          65 -0.116824524499084     
          66 -0.156583383806416     
          67  0.222765355254105     
          68 -8.431013961528393E-002
          69 -2.578146112628837E-002
          70 -3.612641362463218E-002
          71 -1.480616084342808E-002
          72 -4.281223356311089E-002
          73 -3.082760817327786E-002
          74 -1.446841911909335E-002
          75 -3.630940576555250E-002
          76 -2.661185906033790E-002
          77 -8.751545884341280E-002
Sym=     6a
Ene=  -0.761601299341861     
Spin= Alpha
Occup=     2.00000000
           1  9.283652460485581E-002
           2  2.307887193163939E-002
           3 -3.493412171245888E-002
           4 -4.062499020853132E-002
           5  0.246465808216440     
           6  2.539248370313732E-002
           7 -2.311230861859619E-002
           8  8.578809350728555E-003
           9  8.268462437892077E-002
          10  1.409051019766130E-002
          11 -3.008549140648826E-002
          12  4.470990647508012E-002
          13  0.103515291067970     
          14  4.166097598988062E-002
          15  4.870066094613471E-002
          16  4.926932603209221E-003
          17  0.120233100451084     
          18 -0.130430783630145     
          19 -5.391400033607192E-002
          20  7.786202027889513E-003