[Molden Format]
[Title]
[Atoms] AU
C      1     6 -0.55853821165973E+01  0.23343306207029E+01  0.57529398879871E+00
C      2     6 -0.49017107510225E+01 -0.12383600909333E+00 -0.78752750271410E+00
C      3     6 -0.53261383782024E+01  0.20339381521094E+00 -0.36306646416450E+01
C      4     6 -0.66172539595371E+01 -0.22476522597377E+01  0.18433069856259E+00
C      5     6 -0.21199362710826E+01 -0.92636556498948E+00 -0.33257271282359E+00
N      6     7 -0.13909431386353E+01 -0.12673366783853E+01  0.23255917871015E+01
C      7     6 -0.14529526769955E+00  0.95398853214566E+00 -0.14090736529433E+01
N      8     7  0.22653090274836E+01  0.38877575223320E+00 -0.99313460597711E-01
C      9     6  0.37781697450805E+01 -0.15179603264329E+01 -0.14753127754557E+01
C     10     6  0.58243447119629E+01 -0.26494521843338E+01  0.16675815964871E+00
S     11    16  0.80266229855570E+01 -0.77325038895213E-01  0.88087634355910E+00
O     12     8  0.99371352314547E+01 -0.90460824583882E+00  0.25794318661122E+01
O     13     8  0.86747636819127E+01  0.10871836173695E+01 -0.14716682845454E+01
C     14     6  0.58011240704966E+01  0.20329327139116E+01  0.24827739092300E+01
C     15     6  0.37504113082398E+01  0.26501541580436E+01  0.58939713603965E+00
H     16     1 -0.53718728632606E+01  0.21788189862529E+01  0.26151820382821E+01
H     17     1 -0.44748433160863E+01  0.39283151400801E+01 -0.92733695193153E-01
H     18     1 -0.75573077339553E+01  0.27696141627213E+01  0.20864745301220E+00
H     19     1 -0.47237069396830E+01 -0.14672128473676E+01 -0.46635068928912E+01
H     20     1 -0.73248457789570E+01  0.48433786085899E+00 -0.40006693694317E+01
H     21     1 -0.43190380005075E+01  0.18364089742110E+01 -0.43613581839377E+01
H     22     1 -0.61869552614918E+01 -0.40267201186685E+01 -0.75044030926332E+00
H     23     1 -0.64288380068771E+01 -0.25053210872881E+01  0.22152488934619E+01
H     24     1 -0.85795715850462E+01 -0.17906890892314E+01 -0.20239711754847E+00
H     25     1 -0.18551801766810E+01 -0.27539933733633E+01 -0.12689889337632E+01
H     26     1 -0.22209375768611E+01  0.60030944725062E-01  0.34371422534954E+01
H     27     1 -0.18922566754917E+01 -0.29889402463298E+01  0.29921602177055E+01
H     28     1  0.53167061346785E-01  0.77615389587417E+00 -0.34473556391339E+01
H     29     1 -0.70901677444344E+00  0.28833065014573E+01 -0.96566876812849E+00
H     30     1  0.13784389571357E+01 -0.48878459294889E+00  0.15887783071286E+01
H     31     1  0.25000595284320E+01 -0.29895405869378E+01 -0.21557504412331E+01
H     32     1  0.46865255359318E+01 -0.60845983025040E+00 -0.30961428912947E+01
H     33     1  0.68633741261009E+01 -0.40996398221645E+01 -0.85001556779707E+00
H     34     1  0.51380200655642E+01 -0.34166052186671E+01  0.19423500215850E+01
H     35     1  0.51154662641132E+01  0.10758707352654E+01  0.41640880583146E+01
H     36     1  0.68267906612231E+01  0.37253620909140E+01  0.30304022514711E+01
H     37     1  0.46477794622346E+01  0.34145039808273E+01 -0.11102130406047E+01
H     38     1  0.24635281478340E+01  0.40669606381196E+01  0.13666552245712E+01
[GTO]
           1 0
 s           4   1.00000000000000     
   51.0493630955799      -0.163120632101274     
   8.79112274068875      -0.199110245810007     
  0.706404222589298       0.318820477536558     
  0.269228134134116       0.127065041842404     
 p           4   1.00000000000000     
   5.82636561408000       0.737164515452096     
   1.51068960187200       0.682163716148503     
  0.532564832880000       0.357830539292537     
  0.212023236906000       5.398303027584788E-002
 
           2 0
 s           4   1.00000000000000     
   51.0493630955799      -0.163120632101274     
   8.79112274068875      -0.199110245810007     
  0.706404222589298       0.318820477536558     
  0.269228134134116       0.127065041842404     
 p           4   1.00000000000000     
   5.82636561408000       0.737164515452096     
   1.51068960187200       0.682163716148503     
  0.532564832880000       0.357830539292537     
  0.212023236906000       5.398303027584788E-002
 
           3 0
 s           4   1.00000000000000     
   51.0493630955799      -0.163120632101274     
   8.79112274068875      -0.199110245810007     
  0.706404222589298       0.318820477536558     
  0.269228134134116       0.127065041842404     
 p           4   1.00000000000000     
   5.82636561408000       0.737164515452096     
   1.51068960187200       0.682163716148503     
  0.532564832880000       0.357830539292537     
  0.212023236906000       5.398303027584788E-002
 
           4 0
 s           4   1.00000000000000     
   51.0493630955799      -0.163120632101274     
   8.79112274068875      -0.199110245810007     
  0.706404222589298       0.318820477536558     
  0.269228134134116       0.127065041842404     
 p           4   1.00000000000000     
   5.82636561408000       0.737164515452096     
   1.51068960187200       0.682163716148503     
  0.532564832880000       0.357830539292537     
  0.212023236906000       5.398303027584788E-002
 
           5 0
 s           4   1.00000000000000     
   51.0493630955799      -0.163120632101274     
   8.79112274068875      -0.199110245810007     
  0.706404222589298       0.318820477536558     
  0.269228134134116       0.127065041842404     
 p           4   1.00000000000000     
   5.82636561408000       0.737164515452096     
   1.51068960187200       0.682163716148503     
  0.532564832880000       0.357830539292537     
  0.212023236906000       5.398303027584788E-002
 
           6 0
 s           4   1.00000000000000     
   63.5940244669410      -0.192343884147216     
   10.9514172315237      -0.234781079249537     
  0.879993102573770       0.375937539017009     
  0.335387152965211       0.149828892718628     
 p           4   1.00000000000000     
   7.29650404814951       0.976586663156674     
   1.89187454507126       0.903722267303458     
  0.666944321108241       0.474049584615364     
  0.265522026741309       7.151606771501186E-002
 
           7 0
 s           4   1.00000000000000     
   51.0493630955799      -0.163120632101274     
   8.79112274068875      -0.199110245810007     
  0.706404222589298       0.318820477536558     
  0.269228134134116       0.127065041842404     
 p           4   1.00000000000000     
   5.82636561408000       0.737164515452096     
   1.51068960187200       0.682163716148503     
  0.532564832880000       0.357830539292537     
  0.212023236906000       5.398303027584788E-002
 
           8 0
 s           4   1.00000000000000     
   63.5940244669410      -0.192343884147216     
   10.9514172315237      -0.234781079249537     
  0.879993102573770       0.375937539017009     
  0.335387152965211       0.149828892718628     
 p           4   1.00000000000000     
   7.29650404814951       0.976586663156674     
   1.89187454507126       0.903722267303458     
  0.666944321108241       0.474049584615364     
  0.265522026741309       7.151606771501186E-002
 
           9 0
 s           4   1.00000000000000     
   51.0493630955799      -0.163120632101274     
   8.79112274068875      -0.199110245810007     
  0.706404222589298       0.318820477536558     
  0.269228134134116       0.127065041842404     
 p           4   1.00000000000000     
   5.82636561408000       0.737164515452096     
   1.51068960187200       0.682163716148503     
  0.532564832880000       0.357830539292537     
  0.212023236906000       5.398303027584788E-002
 
          10 0
 s           4   1.00000000000000     
   51.0493630955799      -0.163120632101274     
   8.79112274068875      -0.199110245810007     
  0.706404222589298       0.318820477536558     
  0.269228134134116       0.127065041842404     
 p           4   1.00000000000000     
   5.82636561408000       0.737164515452096     
   1.51068960187200       0.682163716148503     
  0.532564832880000       0.357830539292537     
  0.212023236906000       5.398303027584788E-002
 
          11 0
 s           4   1.00000000000000     
   5.94059715667128      -8.937241731159805E-002
   1.67332031646937      -0.180826416098390     
  0.300052353376111       0.217239963388792     
  0.147626982610695       6.093036238655329E-002
 p           4   1.00000000000000     
   7.60402394306428      -0.258148203245547     
  0.785799530644415       0.290555694475872     
  0.355154539932778       0.228494836712103     
  0.171689541475341       3.379048730081900E-002
 d           3   1.00000000000000     
   1.51575937639239       0.574808919567051     
  0.475268595433768       0.261853961962925     
  0.185128831077629       3.488754942672512E-002
 
          12 0
 s           4   1.00000000000000     
   69.1379619061966      -0.204787563700778     
   11.9061291327073      -0.249970231368273     
  0.956708277443407       0.400258802406396     
  0.364625204960737       0.159522066676936     
 p           4   1.00000000000000     
   8.21241932577816        1.13215567991868     
   2.12935769970981        1.04768407822548     
  0.750664482023609       0.549565082171590     
  0.298852465432831       8.290848659276662E-002
 
          13 0
 s           4   1.00000000000000     
   69.1379619061966      -0.204787563700778     
   11.9061291327073      -0.249970231368273     
  0.956708277443407       0.400258802406396     
  0.364625204960737       0.159522066676936     
 p           4   1.00000000000000     
   8.21241932577816        1.13215567991868     
   2.12935769970981        1.04768407822548     
  0.750664482023609       0.549565082171590     
  0.298852465432831       8.290848659276662E-002
 
          14 0
 s           4   1.00000000000000     
   51.0493630955799      -0.163120632101274     
   8.79112274068875      -0.199110245810007     
  0.706404222589298       0.318820477536558     
  0.269228134134116       0.127065041842404     
 p           4   1.00000000000000     
   5.82636561408000       0.737164515452096     
   1.51068960187200       0.682163716148503     
  0.532564832880000       0.357830539292537     
  0.212023236906000       5.398303027584788E-002
 
          15 0
 s           4   1.00000000000000     
   51.0493630955799      -0.163120632101274     
   8.79112274068875      -0.199110245810007     
  0.706404222589298       0.318820477536558     
  0.269228134134116       0.127065041842404     
 p           4   1.00000000000000     
   5.82636561408000       0.737164515452096     
   1.51068960187200       0.682163716148503     
  0.532564832880000       0.357830539292537     
  0.212023236906000       5.398303027584788E-002
 
          16 0
 s           3   1.00000000000000     
   3.37022769753360       0.273591105889083     
  0.613891182214980       0.264605406538605     
  0.166142911484160       8.246594753408230E-002
 
          17 0
 s           3   1.00000000000000     
   3.37022769753360       0.273591105889083     
  0.613891182214980       0.264605406538605     
  0.166142911484160       8.246594753408230E-002
 
          18 0
 s           3   1.00000000000000     
   3.37022769753360       0.273591105889083     
  0.613891182214980       0.264605406538605     
  0.166142911484160       8.246594753408230E-002
 
          19 0
 s           3   1.00000000000000     
   3.37022769753360       0.273591105889083     
  0.613891182214980       0.264605406538605     
  0.166142911484160       8.246594753408230E-002
 
          20 0
 s           3   1.00000000000000     
   3.37022769753360       0.273591105889083     
  0.613891182214980       0.264605406538605     
  0.166142911484160       8.246594753408230E-002
 
          21 0
 s           3   1.00000000000000     
   3.37022769753360       0.273591105889083     
  0.613891182214980       0.264605406538605     
  0.166142911484160       8.246594753408230E-002
 
          22 0
 s           3   1.00000000000000     
   3.37022769753360       0.273591105889083     
  0.613891182214980       0.264605406538605     
  0.166142911484160       8.246594753408230E-002
 
          23 0
 s           3   1.00000000000000     
   3.37022769753360       0.273591105889083     
  0.613891182214980       0.264605406538605     
  0.166142911484160       8.246594753408230E-002
 
          24 0
 s           3   1.00000000000000     
   3.37022769753360       0.273591105889083     
  0.613891182214980       0.264605406538605     
  0.166142911484160       8.246594753408230E-002
 
          25 0
 s           3   1.00000000000000     
   3.37022769753360       0.273591105889083     
  0.613891182214980       0.264605406538605     
  0.166142911484160       8.246594753408230E-002
 
          26 0
 s           3   1.00000000000000     
   3.37022769753360       0.273591105889083     
  0.613891182214980       0.264605406538605     
  0.166142911484160       8.246594753408230E-002
 
          27 0
 s           3   1.00000000000000     
   3.37022769753360       0.273591105889083     
  0.613891182214980       0.264605406538605     
  0.166142911484160       8.246594753408230E-002
 
          28 0
 s           3   1.00000000000000     
   3.37022769753360       0.273591105889083     
  0.613891182214980       0.264605406538605     
  0.166142911484160       8.246594753408230E-002
 
          29 0
 s           3   1.00000000000000     
   3.37022769753360       0.273591105889083     
  0.613891182214980       0.264605406538605     
  0.166142911484160       8.246594753408230E-002
 
          30 0
 s           3   1.00000000000000     
   3.37022769753360       0.273591105889083     
  0.613891182214980       0.264605406538605     
  0.166142911484160       8.246594753408230E-002
 
          31 0
 s           3   1.00000000000000     
   3.37022769753360       0.273591105889083     
  0.613891182214980       0.264605406538605     
  0.166142911484160       8.246594753408230E-002
 
          32 0
 s           3   1.00000000000000     
   3.37022769753360       0.273591105889083     
  0.613891182214980       0.264605406538605     
  0.166142911484160       8.246594753408230E-002
 
          33 0
 s           3   1.00000000000000     
   3.37022769753360       0.273591105889083     
  0.613891182214980       0.264605406538605     
  0.166142911484160       8.246594753408230E-002
 
          34 0
 s           3   1.00000000000000     
   3.37022769753360       0.273591105889083     
  0.613891182214980       0.264605406538605     
  0.166142911484160       8.246594753408230E-002
 
          35 0
 s           3   1.00000000000000     
   3.37022769753360       0.273591105889083     
  0.613891182214980       0.264605406538605     
  0.166142911484160       8.246594753408230E-002
 
          36 0
 s           3   1.00000000000000     
   3.37022769753360       0.273591105889083     
  0.613891182214980       0.264605406538605     
  0.166142911484160       8.246594753408230E-002
 
          37 0
 s           3   1.00000000000000     
   3.37022769753360       0.273591105889083     
  0.613891182214980       0.264605406538605     
  0.166142911484160       8.246594753408230E-002
 
          38 0
 s           3   1.00000000000000     
   3.37022769753360       0.273591105889083     
  0.613891182214980       0.264605406538605     
  0.166142911484160       8.246594753408230E-002
 
[MO]
Sym=     1a
Ene=  -0.909665828366109     
Spin= Alpha
Occup=     2.00000000
           1  7.717296160132518E-006
           2  1.371057357435026E-005
           3 -7.710208360041967E-006
           4 -3.257305429709338E-006
           5  5.002593827687474E-005
           6  9.259080185662931E-005
           7  1.534896532082357E-006
           8  8.121126283232971E-006
           9  4.112113637806542E-006
          10  1.078015162929192E-005
          11 -7.049890563669115E-007
          12  8.716762999413839E-006
          13 -3.799010764365331E-006
          14  4.507594669916650E-006
          15  2.673932959229050E-006
          16 -9.920536051494439E-007
          17  9.679339083085087E-004
          18  6.791641655568346E-004
          19  3.512300809070953E-004
          20 -1.953067400656265E-005
          21  3.900440981488052E-004
          22  2.548270093454755E-004
          23  2.266956982261015E-004
          24 -4.628569368914988E-004
          25  3.286488015191215E-003
          26  7.381860346103658E-004
          27 -4.434842634913437E-004
          28  8.909759258715202E-004
          29 -6.074566647970448E-003
          30 -1.357820345920450E-002
          31  1.210241710144842E-003
          32 -2.813905498351742E-003
          33 -1.309236862303933E-002
          34 -8.160903145307111E-003
          35 -1.725141373773907E-003
          36 -8.597299977559055E-003
          37 -5.873168600851535E-002
          38 -2.172829262590894E-002
          39 -3.562788167136562E-002
          40 -8.044408762317889E-003
          41 -0.832539440263319     
          42  1.557713692482770E-002
          43 -1.802737882368459E-003
          44  4.209714309388490E-003
          45 -5.005441956679580E-004
          46 -9.259980413912017E-003
          47  9.760524609579975E-003
          48 -1.604195208128596E-003
          49  3.362544831981923E-003
          50 -1.440486545825712E-002
          51 -9.826639256583843E-002
          52  7.936057358170914E-002
          53 -2.934057144881031E-002
          54  6.043265902657580E-002
          55 -0.101941212018809     
          56  3.952502374754869E-002
          57  4.253966877120468E-002
          58 -8.554407224699290E-002
          59 -5.874970423492328E-002
          60 -2.206460952752781E-002
          61  2.792928598498429E-002
          62  2.336056563630729E-002
          63 -1.303405185396243E-002
          64 -8.084006463434407E-003
          65  7.840357525383713E-003
          66 -3.776745046683191E-003
          67 -8.395508990762814E-007
          68  3.441678683080549E-006
          69  3.990195176445515E-007
          70 -1.933860736784389E-006
          71  8.929933616028397E-007
          72 -1.276590666610917E-006
          73  6.373811522104067E-007
          74 -4.205253780579389E-008
          75  1.571947657494357E-006
          76  1.144527694695870E-004
          77  6.721951740677587E-006
          78 -2.883593425944083E-005
          79  4.172712173098016E-004
          80  4.673154952914801E-004
          81  1.585889908556027E-003
          82  9.007686763584282E-004
          83  1.149101403970362E-002
          84  1.548924076599523E-002
          85  1.530861136546936E-002
          86  1.531697702172548E-002
          87  1.550374300181992E-002
          88  1.110643717366812E-002
          89  9.074377618047086E-004
Sym=     2a
Ene=  -0.865184451297002     
Spin= Alpha
Occup=     2.00000000
           1 -5.710064688413174E-004
           2 -1.215042907991796E-003
           3  5.569226620913559E-004
           4  1.444319522122163E-004
           5 -3.007113593618183E-003
           6 -7.168427669085036E-003
           7 -4.444945195158484E-005
           8 -1.133970610037010E-003
           9  1.905964026719301E-004
          10 -6.801212916033776E-004
          11  8.552168001175396E-005
          12 -4.684726229564717E-004
          13  5.799828653741757E-004
          14 -3.037374232857309E-004
          15 -7.010389486046336E-005
          16 -1.803961900956247E-005
          17 -6.853205980916008E-002
          18 -4.893029158357128E-002
          19 -2.033450297794153E-002
          20 -3.684047534579560E-003
          21 -3.746269786302766E-002
          22 -2.013732778039970E-002
          23 -1.592436127092759E-002
          24  3.632053428967127E-002
          25 -0.216708075433653     
          26 -0.113639801997089     
          27  3.602544311793019E-002
          28 -6.749296820068391E-002
          29 -0.551392272543784     
          30  1.636963370978663E-003
          31 -2.482623827866035E-002
          32  6.745837493912731E-002
          33 -0.208834162097742     
          34  7.725360598722258E-002
          35 -9.466271482286760E-002
          36 -6.460970487675444E-002
          37 -4.150976951429963E-002
          38  3.888001253545881E-002
          39 -2.454436016487535E-002
          40  1.140802391640929E-002
          41  3.363127092770150E-002
          42  1.249838604015292E-002
          43 -5.800952864345756E-004
          44  1.485964241098213E-003
          45  3.341353556592896E-003
          46 -3.213341808905567E-003
          47 -1.280117476873283E-004
          48 -6.745370463264747E-004
          49  1.323997953762607E-003
          50 -2.295701904248121E-003
          51  1.533556265282531E-002
          52 -5.557326835962296E-003
          53  2.346756813877875E-003
          54 -4.808001101663974E-003
          55  8.437799485670279E-003
          56  3.526918160964247E-003
          57 -2.291607063062742E-003
          58  4.744933884250404E-003
          59 -4.026536555906403E-002
          60  3.772610480528452E-002
          61  6.146351946364683E-003
          62  2.602142574413573E-002
          63 -0.202411353318460     
          64  7.312855368714591E-002
          65  0.108403610051837     
          66  3.674853467115744E-002
          67 -1.296331800971740E-004
          68 -5.879858369809402E-004
          69  1.387932901468482E-005
          70  3.181113539262449E-005
          71  2.874324756435333E-007
          72  3.371565689257034E-005
          73  1.496024475643590E-005
          74  9.384279863730378E-005
          75 -3.234576624663269E-005
          76 -1.350428904196130E-002
          77 -2.225606622832422E-003
          78  1.362730559837959E-003
          79 -3.861280312690030E-002
          80 -3.981911075133324E-002
          81 -0.115697470548829     
          82 -4.130222866195177E-002
          83 -3.998818637185641E-002
          84 -3.665202812529409E-003
          85 -1.095852699861276E-002
          86 -1.066811105095518E-002
          87 -3.504682713893846E-003
          88 -3.875720028857785E-002
          89 -3.934247735194265E-002
Sym=     3a
Ene=  -0.837363604179755     
Spin= Alpha
Occup=     2.00000000
           1 -9.261009438543863E-003
           2 -7.935248734481587E-003
           3  6.647441756611023E-003
           4  2.542138091156455E-003
           5 -4.205331326915344E-002
           6 -3.816392752403949E-002
           7  2.870447686214230E-003
           8 -6.440834762347253E-003
           9 -7.115222805164725E-003
          10 -6.366403412318564E-003
          11  8.241425298430552E-004
          12 -6.929974880499854E-003
          13 -4.275136337648397E-003
          14 -6.420878353446844E-003
          15 -3.142073420803290E-003
          16  8.155366738911815E-004
          17 -0.240508168920222     
          18 -8.873230606389663E-002
          19 -4.736153306806699E-002
          20 -1.828289031416922E-002
          21 -0.132000473659547     
          22 -1.041155613201409E-002
          23 -3.398125926725054E-002
          24  0.106927648160448     
          25 -0.316013751247066     
          26 -3.588246748418320E-003
          27  8.265071790638413E-002
          28 -7.515057371856909E-002
          29  3.730247288051797E-002
          30  0.363848685480220     
          31  9.596639351482406E-002
          32  8.746699232317112E-002
          33  0.104547236738332     
          34  5.841689124372505E-002
          35  4.287811452527387E-002
          36  5.216953366282242E-002
          37  6.923842597779242E-002
          38 -3.899568465441457E-002
          39  2.967575144608455E-002
          40 -1.486782244420457E-002
          41 -6.157881598118014E-002
          42 -3.891296916005423E-002
          43  7.653547018999712E-003
          44 -3.654241440378184E-003
          45 -3.812508771505305E-003
          46  3.400861559536571E-003
          47  4.116472119687339E-004
          48  5.745828264073139E-004
          49 -5.171714936502603E-003
          50  3.963672087215694E-003
          51 -5.825704884889953E-002
          52  1.347285801043268E-002
          53 -5.766688032379227E-003
          54  1.317558440759502E-002
          55 -2.232215307365662E-002
          56 -1.045353769083138E-002
          57  6.836691051054312E-003
          58 -9.515087305558022E-003
          59  0.136041109810687     
          60 -7.948797306278195E-002
          61  1.165107506722550E-003
          62 -5.746290227078004E-002
          63  0.293876358579522     
          64  1.509921551006709E-002
          65 -9.705317585288788E-002
          66  9.738323162559272E-003
          67 -2.406358508960673E-003
          68 -3.890410264919661E-003
          69 -2.652279980344555E-004
          70 -1.557972683167033E-003
          71 -1.605847598558290E-004
          72 -2.715002367527633E-003
          73 -9.469626817665142E-004
          74 -1.125029554915257E-003
          75 -1.495901691255547E-004
          76 -5.367781254450658E-002
          77 -1.950111249322831E-002
          78 -1.078177283698722E-002
          79 -6.568334227811698E-002
          80 -6.484606301468522E-002
          81 -5.009024160983547E-002
          82 -5.451442163943618E-003
          83  3.163077718374201E-002
          84  1.055550727559586E-002
          85  1.828370036141492E-002
          86  3.435392097310955E-002
          87  2.223412862641932E-002
          88  6.928911116182213E-002
          89  5.526482560796618E-002
Sym=     4a
Ene=  -0.831152918353525     
Spin= Alpha
Occup=     2.00000000
           1  4.024296948966543E-003
           2  2.953409581184950E-003
           3 -1.863546259128197E-003
           4 -8.554000432447241E-004
           5  1.047175523357639E-002
           6  7.994621283128656E-003
           7  1.274743565131384E-003
           8  2.419238458351776E-003
           9  1.411004657230518E-003
          10  1.072316619195884E-003
          11  1.765353337306894E-004
          12  1.657068140514328E-003
          13  9.703527865539937E-004
          14  1.280790835541493E-003
          15  9.356277274899708E-004
          16 -7.488105507491947E-005
          17  3.696510833737102E-002
          18  7.868031055046630E-003
          19  2.282917121767468E-002
          20  1.140091262244501E-002
          21  2.760940859697646E-002
          22  3.452624823442712E-004
          23  1.633569329464883E-002
          24 -1.635241936999787E-002
          25  0.100605337937317     
          26  7.957082339212636E-003
          27  6.114421161619033E-002
          28  6.040794034746250E-002
          29  7.989161584802312E-003
          30 -0.117347703997678     
          31  0.369049586239502     
          32  0.157983455335330     
          33 -0.406295345655077     
          34  4.781787604569358E-002
          35 -1.503970671631504E-002
          36 -7.540593054471827E-002
          37 -0.173394589138770     
          38  9.649765395260607E-002
          39 -3.925463724919991E-002
          40  5.089906434137269E-002
          41  1.970606162937751E-002
          42  1.459826638291011E-002
          43  2.012970475148299E-002
          44  1.299657262890190E-002
          45  1.157622947433709E-003
          46 -4.368175105430354E-003
          47  3.210552157996645E-003
          48 -7.237763685285894E-003
          49 -1.639535104380266E-003
          50  1.299546792542793E-003
          51  2.301417072818618E-002
          52 -4.718391423839965E-003
          53  4.901388649860561E-003
          54 -3.305848848507183E-003
          55  7.791514840039278E-003
          56  3.969827743342490E-003
          57  6.195591297118263E-003
          58  7.345416454399682E-003
          59  9.881840946313490E-002
          60 -5.694152313084330E-002
          61  1.724226738439013E-002
          62 -3.244390848418124E-002
          63  0.286454961215925     
          64 -8.206312032691972E-002
          65 -2.409098683574136E-002
          66  2.224449411558986E-002
          67  1.028214480726086E-003
          68  2.645869951819339E-003
          69  9.929028483575662E-005
          70  6.116423403814330E-005
          71  4.720828711609493E-005
          72  7.857374924994807E-004
          73  1.120978778422771E-004
          74  3.127412348502490E-004
          75  5.607387367730306E-005
          76 -2.199173204698019E-003
          77  9.248572465294386E-003
          78  2.976053700317665E-004
          79  3.036351425893409E-003
          80  5.949531670834123E-002
          81  1.251411741683857E-002
          82 -0.117005339739847     
          83 -8.830923289248031E-002
          84 -3.238003480145766E-002
          85 -4.279142764773590E-002
          86  2.309811561474602E-002
          87  1.942469204023571E-002
          88  5.734832374388925E-002
          89  0.102828109787877     
Sym=     5a
Ene=  -0.806070701638171     
Spin= Alpha
Occup=     2.00000000
           1 -3.894248624788122E-002
           2 -1.886099730637761E-002
           3  2.710866993733425E-002
           4  7.597253929366154E-003
           5 -0.145850215276848     
           6 -7.042338215995123E-002
           7  2.037927509174721E-002
           8 -2.776891055025856E-002
           9 -2.707935304378692E-002
          10 -1.174599090224251E-002
          11  4.764575088453196E-003
          12 -2.453336618462015E-002
          13 -3.903814578266829E-002
          14 -2.987038490298241E-002
          15 -1.738928399974575E-002
          16  4.224467284847042E-003
          17 -0.352740102046115     
          18  1.161755112332984E-002
          19  1.026612915731268E-002
          20 -0.109151250332904     
          21 -0.319297416949824     
          22  4.852906455868633E-002
          23 -2.453002605732848E-002
          24  0.151202431460162     
          25  9.051292491648952E-002
          26  0.170110051258778     
          27  5.563533611334252E-002
          28 -3.451756744658363E-002
          29  0.131236651300572     
          30 -0.109294922717033     
          31  7.613414363389953E-002