45
 energy: -65.170555963931 gnorm: 0.000546888699 xtb: 6.7.1 (edcfbbe)
C            4.45194198720000       -0.27510389362651       -0.09422107796461
C            3.33568310411046       -1.06359729755077        0.58712349247442
C            3.89206439453887       -1.80844498282144        1.80098559644684
C            2.18691995612596       -0.13556608387165        1.01500047196670
N            1.04225869904763       -0.83077340126004        1.62025894217230
C            1.58393320219564        0.64581177824485       -0.17924076178503
N            0.24374252265878        1.08906849057399        0.25588273861465
C           -0.82138155597687        1.10684832207918       -0.78611747922500
C           -2.09397766496199        1.73025446523414       -0.25462900943455
C           -2.43385461945757        1.70827335482741        1.09371498974811
C           -3.62607259083171        2.26212203231553        1.52573403423987
C           -4.47983198661192        2.83015622878356        0.59623054282004
F           -5.63020230978068        3.36462209963854        1.01312419912073
C           -4.16723318063178        2.85742143639002       -0.75303694236870
C           -2.97136007803830        2.30617952724047       -1.16855519409101
C           -1.07097797872249       -0.30554566354303       -1.26981153089954
C           -0.73095489858211       -0.67429872850501       -2.56619319902962
C           -0.94941448379334       -1.96516076093688       -3.01177677190333
C           -1.51225774415474       -2.88374021768941       -2.14180068293406
F           -1.71574780734402       -4.13612488984153       -2.55747756036538
C           -1.86680880217266       -2.53845407184506       -0.84697801612539
C           -1.64533441241791       -1.24443276030758       -0.41757458996725
H            4.12233954885772        0.16263593825380       -1.03217391666740
H            5.28507726117393       -0.93692711624681       -0.31146303465309
H            4.81358533157757        0.51655234049808        0.55744418229116
H            2.93430500790258       -1.79629920600409       -0.12351759443299
H            4.28248355870179       -1.10553062692681        2.53350995952123
H            4.70424478142312       -2.45980259672616        1.49290581648348
H            3.13586257736775       -2.42786984963669        2.27800183108623
H            2.56609149358508        0.58054575054617        1.75219188080668
H            1.18567957402122       -1.00954466841921        2.60629115059621
H            0.88173248446090       -1.72329145926644        1.16121150229346
H            2.20953542648911        1.48460391942652       -0.47570458007138
H            1.45920380201076       -0.03154970153392       -1.02653613853290
H            0.27905586763754        2.00053606080911        0.71645769727196
H            0.08456192230699        0.30350457783200        1.00427079326091
H           -0.45679386204507        1.71180993265953       -1.62429642417265
H           -1.78528997207087        1.26266520328167        1.83387495364326
H           -3.89945464699166        2.25506524884658        2.56831223848692
H           -4.85248242310144        3.30523199706029       -1.45390254523182
H           -2.71691504232953        2.31873470045744       -2.21720352063586
H           -0.29969867456106        0.05072614150611       -3.24047111396037
H           -0.69417559538058       -2.26366526614804       -4.01546636732174
H           -2.31673764750312       -3.27598400174580       -0.20232599433272
H           -1.94334452592034       -0.96166230206950        0.58052869631456
