37
 energy: -39.627236749256 gnorm: 0.000496115374 xtb: 6.7.1 (edcfbbe)
C           -2.94532420383597        0.67949074084957       -1.29363775877822
C           -2.53580056363906       -0.33499516764308       -0.23315998588271
C           -2.09467069527411       -1.65450606175692       -0.85277846867978
C           -3.67102878090698       -0.57015159379014        0.75919924018877
N           -1.39684393191901        0.23073562820351        0.57163222623494
C           -0.15418111539383        0.65913910275375       -0.10473450585439
C            0.98598273574544        0.38270471945403        0.90655135198340
N            0.60757900514684       -0.87598272445232        1.55999996744865
C            2.40561227574125        0.41681333609678        0.28347355716117
C            2.62182622416223       -0.70185998398458       -0.73907050228754
C            3.42600508659122        0.25930250050429        1.41743841306895
C            2.62211338611176        1.77212070913309       -0.39533667459970
H           -3.80653090006369        0.30771430837723       -1.84009857191969
H           -3.22368315316032        1.62841402291769       -0.84124700442550
H           -2.14830926830483        0.85350625967212       -2.01110207428951
H           -1.33356121602584       -1.51681708053627       -1.61557867381318
H           -1.71808526776487       -2.33442331300151       -0.09226812920795
H           -2.94609261860311       -2.12920878730473       -1.33095579297374
H           -3.37220476767675       -1.26563423600886        1.54012167132488
H           -3.99310068994977        0.36098932956985        1.22058236906549
H           -4.52878893647043       -0.99466405489151        0.24674868822373
H           -1.76249791485717        0.99193848224004        1.14734124035058
H           -0.94258867696663       -0.51288817781297        1.22864684085060
H           -0.01222592893150        0.04747105055558       -0.99327333951703
H           -0.19199246520077        1.70749932853104       -0.39067198876445
H            0.94876919733233        1.16327637542189        1.67558733513389
H            0.93109969527464       -1.67217672953586        1.01900303808936
H            1.00065794770902       -0.95133472810049        2.48938566890860
H            1.94318560760389       -0.62034523130038       -1.58455820767560
H            2.51604279195823       -1.69002424034392       -0.29515973148705
H            3.63378955082993       -0.63324262645381       -1.12750206170817
H            3.29930828692485        1.03966304523751        2.16447704261848
H            4.43415603732809        0.33512794619742        1.02141097426860
H            3.33575384214670       -0.70905824120704        1.90513704848762
H            3.66110653534822        1.86725729093896       -0.69677638259049
H            2.00875932869793        1.87458682551894       -1.28647234408556
H            2.39576356029233        2.58956197594792        0.28488439345590
