48
 energy: -76.785194539897 gnorm: 0.000638906888 xtb: 6.7.1 (edcfbbe)
C           -2.53915543287058        2.01695373807214       -0.64646957072024
C           -3.19628974452830        0.63345967225417       -0.64422653159058
C           -4.40680176664798        0.65760419161345        0.29652866276125
C           -3.67120257039714        0.29022036056058       -2.05857132135756
C           -2.23000732490122       -0.47477003569645       -0.15745964719868
N           -1.62102290687439       -0.23314550159506        1.15857218901223
C           -1.02978108911911       -0.72788358087775       -1.11139795764781
N            0.02239693512600       -1.34525568810444       -0.28108504100483
C            1.41679661533524       -0.91960011591644       -0.55291844200552
C            2.40079182201850       -1.67639062120276        0.31404981022245
C            2.03945767065366       -2.22669283508920        1.53699607973745
C            3.00130600587550       -2.87817553028553        2.29520604011275
F            2.62463673170462       -3.40555246818604        3.46290509931932
C            4.31556367497401       -2.99705044983489        1.88497764831891
C            4.64785934857340       -2.43237691504895        0.66511766211637
F            5.90231640934780       -2.52262772464786        0.22757920617961
C            3.71484013396874       -1.77921001060613       -0.12356964609606
C            1.54649919491451        0.57074567638902       -0.31183120195348
C            1.38382149495883        1.08116535085375        0.97055371348600
C            1.48614998747522        2.44768394719501        1.17048798234861
F            1.29927218818375        2.92198425680407        2.40505623303784
C            1.75342245236732        3.32978841041386        0.13808997027508
C            1.92466071956924        2.79144343635771       -1.12499979147664
F            2.18101503361784        3.60279448569881       -2.15014929123452
C            1.81866758454368        1.42942048758937       -1.36733584819243
H           -2.27467668128278        2.34868137703574        0.35607196367742
H           -3.24631393392345        2.73959478653992       -1.04319110889153
H           -1.65058865812998        2.05307953194535       -1.27248441801561
H           -5.12161078909005        1.40235797257472       -0.03985671099903
H           -4.11945006775764        0.91299589752432        1.31420667118516
H           -4.90879363098795       -0.30712317693034        0.30737299500128
H           -2.86830460708431        0.38687426182912       -2.78397039566563
H           -4.06484337691300       -0.72226177916198       -2.10149924702018
H           -4.46658483487205        0.96903506301629       -2.35152372356180
H           -2.80391442680479       -1.40505892508122       -0.08346465973022
H           -1.43600431950683        0.75607828702402        1.29972115873945
H           -2.19991286393615       -0.56356704240221        1.92082095365087
H           -1.31389409956665       -1.35970261692667       -1.94999553102745
H           -0.64974146614872        0.22061291112781       -1.49000365729757
H           -0.39795266965382       -0.94967345472081        0.70602605735769
H           -0.02884173256402       -2.36445830724736       -0.29732205399115
H            1.64246460257611       -1.12898819513676       -1.60487464843923
H            1.03855980969484       -2.17492084855327        1.93630978447047
H            5.04914793824536       -3.50599937535048        2.48796929169281
H            4.02639220106973       -1.35735791083354       -1.06547129400973
H            1.21111145394495        0.43986424092387        1.81978315293545
H            1.83595770438647        4.38997257044613        0.31205137388433
H            1.96258128040393        1.06543219568765       -2.37278196039010
