39
 energy: -45.834267075878 gnorm: 0.000434650236 xtb: 6.7.1 (edcfbbe)
C            1.93617382321499       -1.26269978382744       -1.69269092148608
C            2.35912025702087       -0.79315206759976       -0.30862015432165
C            3.61580293627691        0.08978533080641       -0.43186148002223
O            4.04432476437729        0.59117953897235        0.80351203226108
C            3.05767698993208        1.39265128120068        1.39481198004525
C            1.79143219608848        0.57039221431695        1.63630694935631
N            1.29580988232344        0.01460316976672        0.35805318277350
C           -0.02574310357861       -0.63253964725210        0.52388270598962
C           -1.09094021878482        0.46115340419488        0.25985330915199
N           -0.52697362902846        1.29504952560880       -0.80746830300795
C           -2.51101610753010       -0.10489918436053       -0.00661525626625
C           -3.47635797732912        1.07858253787361       -0.14556474438027
C           -2.57632895959102       -0.95074156487570       -1.28100654001505
C           -2.93965632845526       -0.95766100344468        1.19073555137084
H            1.58214434779268       -0.42785839985072       -2.29329690439500
H            1.16979371466181       -2.03129491702011       -1.66178670705948
H            2.79720816506520       -1.69397884139380       -2.19589557188246
H            2.58204859277262       -1.64633354442880        0.34076084451201
H            4.44442552495924       -0.50315313449641       -0.82047236163413
H            3.40915359020340        0.91486517653216       -1.13200281841815
H            2.82884237482818        2.26024786394499        0.75670046075492
H            3.46718511712660        1.74457857796593        2.34218984834190
H            1.01582830963501        1.19125275961478        2.08366170437730
H            2.02514502607977       -0.26030871207069        2.30745781231663
H            0.98212631864641        0.81727247489714       -0.29696320134391
H           -0.12935558168165       -1.42781938962387       -0.20930604766458
H           -0.12347087703306       -1.05571728550619        1.52153689241883
H           -1.16043429943771        1.09407028409056        1.15206720931666
H           -0.89561571778031        2.23763530733519       -0.77982338010599
H           -0.74708719091977        0.90485431368296       -1.71911500384994
H           -3.23438010329250        1.69324733904549       -1.01005275121368
H           -3.45573628015504        1.70358879820105        0.74442363944173
H           -4.49107473775825        0.71471367195845       -0.27550253932705
H           -1.95313553552341       -1.83927445584174       -1.21588135743655
H           -2.29135354126078       -0.38406136650618       -2.16554413713721
H           -3.59926788729224       -1.28404026323293       -1.43047584593153
H           -2.82559815517930       -0.40801787064519        2.12193008557490
H           -2.36432626779690       -1.87741380034000        1.25229521364439
H           -3.98638943159632       -1.22875833769151        1.08976660525129
