[Molden Format]
[Title]
[Atoms] AU
C      1     6  0.69388088234790E+01  0.31549043464958E+01  0.20780661762925E+01
O      2     8  0.45287486491599E+01  0.22029590203697E+01  0.27611193627437E+01
C      3     6  0.24920055172566E+01  0.38646481724553E+01  0.23736877160441E+01
C      4     6  0.14056884317241E+01  0.35089433778227E+01 -0.30935173975764E+00
N      5     7  0.14223393675206E+01  0.77697045408036E+00 -0.88886944720194E+00
C      6     6  0.16362197110839E+01  0.13125935450249E+00 -0.36110625177613E+01
C      7     6  0.34827218941437E+01 -0.20724988039608E+01 -0.38760030595959E+01
O      8     8  0.56093775501865E+01 -0.14556536481140E+01 -0.23828989061366E+01
C      9     6  0.75372566329708E+01 -0.33015941078475E+01 -0.24305042022241E+01
C     10     6 -0.59729400333581E+00 -0.68380624421251E+00  0.41258691265430E+00
C     11     6 -0.32883377421696E+01 -0.11975150131109E+00 -0.53063823303661E+00
N     12     7 -0.36231308884984E+01 -0.14350781118731E+01 -0.29284878181661E+01
C     13     6 -0.53210859403097E+01 -0.70948797724152E+00  0.15287223326636E+01
C     14     6 -0.50527623529711E+01  0.11389643623121E+01  0.37406817731922E+01
C     15     6 -0.50990692254813E+01 -0.34254975300307E+01  0.24970484813561E+01
C     16     6 -0.79453345188375E+01 -0.33386650684876E+00  0.35529360089222E+00
H     17     1  0.73286401851760E+01  0.49363925912343E+01  0.30450910537612E+01
H     18     1  0.82957657223469E+01  0.17402823378634E+01  0.26917945802381E+01
H     19     1  0.71084226820840E+01  0.34235852942842E+01  0.36145257347811E-01
H     20     1  0.30469047016676E+01  0.58386130822437E+01  0.26454614665532E+01
H     21     1  0.10743583187396E+01  0.33963408090286E+01  0.38019400492405E+01
H     22     1 -0.48767742251222E+00  0.42992866865881E+01 -0.44810504915747E+00
H     23     1  0.26246854634824E+01  0.44632539862632E+01 -0.16708424832213E+01
H     24     1  0.31444818333033E+01  0.19425341015147E+00 -0.93762099375222E-01
H     25     1  0.23899466883624E+01  0.17549328860924E+01 -0.46282243414761E+01
H     26     1 -0.23901245651213E+00 -0.36249929821772E+00 -0.43335793403862E+01
H     27     1  0.26408040105331E+01 -0.38554216733122E+01 -0.32189075946823E+01
H     28     1  0.40102736892641E+01 -0.23123574068102E+01 -0.58658482370505E+01
H     29     1  0.82605270557965E+01 -0.35675314207712E+01 -0.43471699827857E+01
H     30     1  0.68466986549716E+01 -0.51126466169343E+01 -0.17083957350186E+01
H     31     1  0.90395731325522E+01 -0.26002778441389E+01 -0.12179922087789E+01
H     32     1 -0.43793332824702E+00 -0.29578408454314E+00  0.24248206014400E+01
H     33     1 -0.20380610826898E+00 -0.26828190412004E+01  0.10020763384078E+00
H     34     1 -0.34576273416291E+01  0.18989169800255E+01 -0.95959738956893E+00
H     35     1 -0.38256285955342E+01 -0.33211327616531E+01 -0.26457926822166E+01
H     36     1 -0.51959767089479E+01 -0.81791952705263E+00 -0.38276690710212E+01
H     37     1 -0.33284927238564E+01  0.83017738134630E+00  0.48143232815227E+01
H     38     1 -0.50873475591596E+01  0.30864954160494E+01  0.30832171718124E+01
H     39     1 -0.66245280702662E+01  0.88548347483443E+00  0.50365332965569E+01
H     40     1 -0.52110263827551E+01 -0.47850310737152E+01  0.95837602942683E+00
H     41     1 -0.66502222741634E+01 -0.38219381211911E+01  0.37824950365486E+01
H     42     1 -0.33433814180540E+01 -0.37305943988966E+01  0.35183134459815E+01
H     43     1 -0.81195757390110E+01  0.15403420336159E+01 -0.47350629207083E+00
H     44     1 -0.83367284888394E+01 -0.17402767374056E+01 -0.10912359077311E+01
H     45     1 -0.93882694263850E+01 -0.52354102032340E+00  0.18025190782905E+01
[GTO]
           1 0
 s           4   1.00000000000000     
   51.0493630955799      -0.163120632101274     
   8.79112274068875      -0.199110245810007     
  0.706404222589298       0.318820477536558     
  0.269228134134116       0.127065041842404     
 p           4   1.00000000000000     
   5.82636561408000       0.737164515452096     
   1.51068960187200       0.682163716148503     
  0.532564832880000       0.357830539292537     
  0.212023236906000       5.398303027584788E-002
 
           2 0
 s           4   1.00000000000000     
   69.1379619061966      -0.204787563700778     
   11.9061291327073      -0.249970231368273     
  0.956708277443407       0.400258802406396     
  0.364625204960737       0.159522066676936     
 p           4   1.00000000000000     
   8.21241932577816        1.13215567991868     
   2.12935769970981        1.04768407822548     
  0.750664482023609       0.549565082171590     
  0.298852465432831       8.290848659276662E-002
 
           3 0
 s           4   1.00000000000000     
   51.0493630955799      -0.163120632101274     
   8.79112274068875      -0.199110245810007     
  0.706404222589298       0.318820477536558     
  0.269228134134116       0.127065041842404     
 p           4   1.00000000000000     
   5.82636561408000       0.737164515452096     
   1.51068960187200       0.682163716148503     
  0.532564832880000       0.357830539292537     
  0.212023236906000       5.398303027584788E-002
 
           4 0
 s           4   1.00000000000000     
   51.0493630955799      -0.163120632101274     
   8.79112274068875      -0.199110245810007     
  0.706404222589298       0.318820477536558     
  0.269228134134116       0.127065041842404     
 p           4   1.00000000000000     
   5.82636561408000       0.737164515452096     
   1.51068960187200       0.682163716148503     
  0.532564832880000       0.357830539292537     
  0.212023236906000       5.398303027584788E-002
 
           5 0
 s           4   1.00000000000000     
   63.5940244669410      -0.192343884147216     
   10.9514172315237      -0.234781079249537     
  0.879993102573770       0.375937539017009     
  0.335387152965211       0.149828892718628     
 p           4   1.00000000000000     
   7.29650404814951       0.976586663156674     
   1.89187454507126       0.903722267303458     
  0.666944321108241       0.474049584615364     
  0.265522026741309       7.151606771501186E-002
 
           6 0
 s           4   1.00000000000000     
   51.0493630955799      -0.163120632101274     
   8.79112274068875      -0.199110245810007     
  0.706404222589298       0.318820477536558     
  0.269228134134116       0.127065041842404     
 p           4   1.00000000000000     
   5.82636561408000       0.737164515452096     
   1.51068960187200       0.682163716148503     
  0.532564832880000       0.357830539292537     
  0.212023236906000       5.398303027584788E-002
 
           7 0
 s           4   1.00000000000000     
   51.0493630955799      -0.163120632101274     
   8.79112274068875      -0.199110245810007     
  0.706404222589298       0.318820477536558     
  0.269228134134116       0.127065041842404     
 p           4   1.00000000000000     
   5.82636561408000       0.737164515452096     
   1.51068960187200       0.682163716148503     
  0.532564832880000       0.357830539292537     
  0.212023236906000       5.398303027584788E-002
 
           8 0
 s           4   1.00000000000000     
   69.1379619061966      -0.204787563700778     
   11.9061291327073      -0.249970231368273     
  0.956708277443407       0.400258802406396     
  0.364625204960737       0.159522066676936     
 p           4   1.00000000000000     
   8.21241932577816        1.13215567991868     
   2.12935769970981        1.04768407822548     
  0.750664482023609       0.549565082171590     
  0.298852465432831       8.290848659276662E-002
 
           9 0
 s           4   1.00000000000000     
   51.0493630955799      -0.163120632101274     
   8.79112274068875      -0.199110245810007     
  0.706404222589298       0.318820477536558     
  0.269228134134116       0.127065041842404     
 p           4   1.00000000000000     
   5.82636561408000       0.737164515452096     
   1.51068960187200       0.682163716148503     
  0.532564832880000       0.357830539292537     
  0.212023236906000       5.398303027584788E-002
 
          10 0
 s           4   1.00000000000000     
   51.0493630955799      -0.163120632101274     
   8.79112274068875      -0.199110245810007     
  0.706404222589298       0.318820477536558     
  0.269228134134116       0.127065041842404     
 p           4   1.00000000000000     
   5.82636561408000       0.737164515452096     
   1.51068960187200       0.682163716148503     
  0.532564832880000       0.357830539292537     
  0.212023236906000       5.398303027584788E-002
 
          11 0
 s           4   1.00000000000000     
   51.0493630955799      -0.163120632101274     
   8.79112274068875      -0.199110245810007     
  0.706404222589298       0.318820477536558     
  0.269228134134116       0.127065041842404     
 p           4   1.00000000000000     
   5.82636561408000       0.737164515452096     
   1.51068960187200       0.682163716148503     
  0.532564832880000       0.357830539292537     
  0.212023236906000       5.398303027584788E-002
 
          12 0
 s           4   1.00000000000000     
   63.5940244669410      -0.192343884147216     
   10.9514172315237      -0.234781079249537     
  0.879993102573770       0.375937539017009     
  0.335387152965211       0.149828892718628     
 p           4   1.00000000000000     
   7.29650404814951       0.976586663156674     
   1.89187454507126       0.903722267303458     
  0.666944321108241       0.474049584615364     
  0.265522026741309       7.151606771501186E-002
 
          13 0
 s           4   1.00000000000000     
   51.0493630955799      -0.163120632101274     
   8.79112274068875      -0.199110245810007     
  0.706404222589298       0.318820477536558     
  0.269228134134116       0.127065041842404     
 p           4   1.00000000000000     
   5.82636561408000       0.737164515452096     
   1.51068960187200       0.682163716148503     
  0.532564832880000       0.357830539292537     
  0.212023236906000       5.398303027584788E-002
 
          14 0
 s           4   1.00000000000000     
   51.0493630955799      -0.163120632101274     
   8.79112274068875      -0.199110245810007     
  0.706404222589298       0.318820477536558     
  0.269228134134116       0.127065041842404     
 p           4   1.00000000000000     
   5.82636561408000       0.737164515452096     
   1.51068960187200       0.682163716148503     
  0.532564832880000       0.357830539292537     
  0.212023236906000       5.398303027584788E-002
 
          15 0
 s           4   1.00000000000000     
   51.0493630955799      -0.163120632101274     
   8.79112274068875      -0.199110245810007     
  0.706404222589298       0.318820477536558     
  0.269228134134116       0.127065041842404     
 p           4   1.00000000000000     
   5.82636561408000       0.737164515452096     
   1.51068960187200       0.682163716148503     
  0.532564832880000       0.357830539292537     
  0.212023236906000       5.398303027584788E-002
 
          16 0
 s           4   1.00000000000000     
   51.0493630955799      -0.163120632101274     
   8.79112274068875      -0.199110245810007     
  0.706404222589298       0.318820477536558     
  0.269228134134116       0.127065041842404     
 p           4   1.00000000000000     
   5.82636561408000       0.737164515452096     
   1.51068960187200       0.682163716148503     
  0.532564832880000       0.357830539292537     
  0.212023236906000       5.398303027584788E-002
 
          17 0
 s           3   1.00000000000000     
   3.37022769753360       0.273591105889083     
  0.613891182214980       0.264605406538605     
  0.166142911484160       8.246594753408230E-002
 
          18 0
 s           3   1.00000000000000     
   3.37022769753360       0.273591105889083     
  0.613891182214980       0.264605406538605     
  0.166142911484160       8.246594753408230E-002
 
          19 0
 s           3   1.00000000000000     
   3.37022769753360       0.273591105889083     
  0.613891182214980       0.264605406538605     
  0.166142911484160       8.246594753408230E-002
 
          20 0
 s           3   1.00000000000000     
   3.37022769753360       0.273591105889083     
  0.613891182214980       0.264605406538605     
  0.166142911484160       8.246594753408230E-002
 
          21 0
 s           3   1.00000000000000     
   3.37022769753360       0.273591105889083     
  0.613891182214980       0.264605406538605     
  0.166142911484160       8.246594753408230E-002
 
          22 0
 s           3   1.00000000000000     
   3.37022769753360       0.273591105889083     
  0.613891182214980       0.264605406538605     
  0.166142911484160       8.246594753408230E-002
 
          23 0
 s           3   1.00000000000000     
   3.37022769753360       0.273591105889083     
  0.613891182214980       0.264605406538605     
  0.166142911484160       8.246594753408230E-002
 
          24 0
 s           3   1.00000000000000     
   3.37022769753360       0.273591105889083     
  0.613891182214980       0.264605406538605     
  0.166142911484160       8.246594753408230E-002
 
          25 0
 s           3   1.00000000000000     
   3.37022769753360       0.273591105889083     
  0.613891182214980       0.264605406538605     
  0.166142911484160       8.246594753408230E-002
 
          26 0
 s           3   1.00000000000000     
   3.37022769753360       0.273591105889083     
  0.613891182214980       0.264605406538605     
  0.166142911484160       8.246594753408230E-002
 
          27 0
 s           3   1.00000000000000     
   3.37022769753360       0.273591105889083     
  0.613891182214980       0.264605406538605     
  0.166142911484160       8.246594753408230E-002
 
          28 0
 s           3   1.00000000000000     
   3.37022769753360       0.273591105889083     
  0.613891182214980       0.264605406538605     
  0.166142911484160       8.246594753408230E-002
 
          29 0
 s           3   1.00000000000000     
   3.37022769753360       0.273591105889083     
  0.613891182214980       0.264605406538605     
  0.166142911484160       8.246594753408230E-002
 
          30 0
 s           3   1.00000000000000     
   3.37022769753360       0.273591105889083     
  0.613891182214980       0.264605406538605     
  0.166142911484160       8.246594753408230E-002
 
          31 0
 s           3   1.00000000000000     
   3.37022769753360       0.273591105889083     
  0.613891182214980       0.264605406538605     
  0.166142911484160       8.246594753408230E-002
 
          32 0
 s           3   1.00000000000000     
   3.37022769753360       0.273591105889083     
  0.613891182214980       0.264605406538605     
  0.166142911484160       8.246594753408230E-002
 
          33 0
 s           3   1.00000000000000     
   3.37022769753360       0.273591105889083     
  0.613891182214980       0.264605406538605     
  0.166142911484160       8.246594753408230E-002
 
          34 0
 s           3   1.00000000000000     
   3.37022769753360       0.273591105889083     
  0.613891182214980       0.264605406538605     
  0.166142911484160       8.246594753408230E-002
 
          35 0
 s           3   1.00000000000000     
   3.37022769753360       0.273591105889083     
  0.613891182214980       0.264605406538605     
  0.166142911484160       8.246594753408230E-002
 
          36 0
 s           3   1.00000000000000     
   3.37022769753360       0.273591105889083     
  0.613891182214980       0.264605406538605     
  0.166142911484160       8.246594753408230E-002
 
          37 0
 s           3   1.00000000000000     
   3.37022769753360       0.273591105889083     
  0.613891182214980       0.264605406538605     
  0.166142911484160       8.246594753408230E-002
 
          38 0
 s           3   1.00000000000000     
   3.37022769753360       0.273591105889083     
  0.613891182214980       0.264605406538605     
  0.166142911484160       8.246594753408230E-002
 
          39 0
 s           3   1.00000000000000     
   3.37022769753360       0.273591105889083     
  0.613891182214980       0.264605406538605     
  0.166142911484160       8.246594753408230E-002
 
          40 0
 s           3   1.00000000000000     
   3.37022769753360       0.273591105889083     
  0.613891182214980       0.264605406538605     
  0.166142911484160       8.246594753408230E-002
 
          41 0
 s           3   1.00000000000000     
   3.37022769753360       0.273591105889083     
  0.613891182214980       0.264605406538605     
  0.166142911484160       8.246594753408230E-002
 
          42 0
 s           3   1.00000000000000     
   3.37022769753360       0.273591105889083     
  0.613891182214980       0.264605406538605     
  0.166142911484160       8.246594753408230E-002
 
          43 0
 s           3   1.00000000000000     
   3.37022769753360       0.273591105889083     
  0.613891182214980       0.264605406538605     
  0.166142911484160       8.246594753408230E-002
 
          44 0
 s           3   1.00000000000000     
   3.37022769753360       0.273591105889083     
  0.613891182214980       0.264605406538605     
  0.166142911484160       8.246594753408230E-002
 
          45 0
 s           3   1.00000000000000     
   3.37022769753360       0.273591105889083     
  0.613891182214980       0.264605406538605     
  0.166142911484160       8.246594753408230E-002
 
[MO]
Sym=     1a
Ene=  -0.846542285190163     
Spin= Alpha
Occup=     2.00000000
           1 -5.562517811429797E-002
           2  6.130728235089404E-002
           3  1.650512185252514E-002
           4 -5.603031775262491E-003
           5 -0.366303577466245     
           6  7.111761288336879E-002
           7 -2.186696018417789E-002
           8  5.310769196861029E-002
           9 -0.180026211211516     
          10 -5.219417979596381E-002
          11  8.765745286417653E-002
          12  3.934130361025271E-002
          13 -0.228656636607922     
          14 -2.296099393698982E-002
          15  0.116252407987191     
          16 -7.508124726314056E-003
          17 -0.423551653744526     
          18  5.634233108866387E-003
          19 -6.861138878429220E-002
          20 -1.939724342652125E-003
          21 -0.147134316295897     
          22 -1.028131333488472E-002
          23 -1.973273880998477E-002
          24 -9.202815910331297E-002
          25 -8.858238530569747E-002
          26 -1.594347529214521E-002
          27 -3.799963920219784E-002
          28 -4.393984568887102E-002
          29 -0.181823031651242     
          30  5.353007888371548E-002
          31 -1.541470505367664E-002
          32  2.119305605346711E-003
          33 -1.725846978499163E-002
          34  1.995384639274756E-002
          35 -1.436764555496265E-002
          36  1.919736750205332E-004
          37 -0.117088768450003     
          38 -5.810342089864255E-002
          39 -5.478080821756685E-002
          40  3.904321310213736E-002
          41 -2.249771773927427E-002
          42 -2.305402270358459E-002
          43 -2.856619026609526E-003
          44 -3.731528829349284E-005
          45 -4.015905253425794E-003
          46 -5.533638719557457E-003
          47 -3.307181064840923E-003
          48 -4.599467901937858E-003
          49  1.420948449912602E-005
          50 -1.868765921719296E-003
          51 -5.853766666926146E-004
          52  7.309224981659976E-004
          53 -1.979203807101163E-004
          54 -4.624411300968738E-004
          55 -2.452177538737352E-005
          56  2.943078067066380E-004
          57  4.016075754003728E-004
          58 -3.628108265034618E-005
          59  5.161408099754136E-006
          60  1.808250353228095E-005
          61  4.138757654075552E-004
          62  9.675485264453545E-005
          63 -4.357244148186840E-005
          64  1.955292166574276E-005
          65 -1.195479467802895E-003
          66  1.101595193957812E-003
          67 -5.087648972964967E-003
          68 -1.765099332812958E-002
          69 -2.448755685772629E-002
          70 -3.836262673232965E-002
          71 -4.520680794871838E-002
          72 -0.112602576152393     
          73 -2.877525247787735E-002
          74 -2.181726849321690E-002
          75 -1.120858351848124E-002
          76 -6.768506384571086E-003
          77  6.841699533947044E-004
          78  1.141287948082368E-004
          79  1.457316178945058E-003
          80 -2.394762972912280E-002
          81 -1.821037830785300E-002
          82 -8.305950801397986E-003
          83  2.889831754654100E-004
          84  8.017694106227407E-004
          85 -5.161574097203962E-004
          86 -7.607970789755291E-005
          87  4.014111790618027E-005
          88  6.829310048532940E-005
          89  1.493169330124005E-005
          90  1.042903598658044E-004
          91  2.379563270358980E-005
          92  3.166806598084177E-005
          93 -6.724998626713736E-006
Sym=     2a
Ene=  -0.840434527966623     
Spin= Alpha
Occup=     2.00000000
           1 -8.059396010187529E-002
           2  8.111395583555782E-002
           3  2.260668785033335E-002
           4 -1.413409523578797E-002
           5 -0.459250470323596     
           6  5.419810263821999E-002
           7 -3.675158563431940E-002
           8  3.536153559913668E-002
           9 -0.175979753302561     
          10 -8.259877900319397E-002
          11  8.099794825487440E-002
          12  3.240927619076208E-003
          13 -4.523169575505148E-002
          14 -2.369107008355935E-002
          15 -8.663333267492109E-003
          16 -5.057285791458763E-002
          17  0.143872150187076     
          18  2.235780890420712E-003
          19 -7.207944742818545E-002
          20 -0.103044897524819     
          21  0.161565862270655     
          22  3.526002075308711E-002
          23 -1.958724810761069E-002
          24  6.449242298611386E-002
          25  0.200088562604068     
          26  6.645881497752602E-002
          27  6.254976481824653E-002
          28  8.784628326356300E-002
          29  0.473606738437467     
          30 -8.986854622295778E-002
          31  5.643505676233469E-003
          32 -2.351969066296721E-002
          33  6.750790987546094E-002
          34 -6.216046872351159E-002
          35  4.774501517539512E-002
          36 -2.207697579507460E-003
          37  4.029763938558819E-002
          38  1.920005816866690E-002
          39  2.943124747005015E-003
          40 -3.040829396985295E-002
          41  9.684123451160253E-003
          42  9.055014435009338E-003
          43 -1.223891959564422E-003
          44 -2.379258519799442E-003
          45  3.380829196683121E-003
          46  3.884436476130120E-003
          47  1.766434860579088E-003
          48  2.966408980723983E-003
          49 -2.640000375506335E-004
          50  5.670219263022905E-004
          51  1.404150800708451E-006
          52 -4.398732209256303E-004
          53 -2.390822473377808E-004
          54 -4.832036431554048E-005
          55  4.236159541003354E-005
          56  2.700688886066249E-005
          57 -1.284652501588712E-004
          58  4.415685101256713E-005
          59 -3.332459228136139E-005
          60 -6.420664336889204E-005
          61 -1.824172863597087E-004
          62 -5.269759964416507E-005
          63  3.365300432000219E-006
          64 -2.574565013269678E-005
          65 -4.152287224009009E-003
          66 -1.495701512072585E-003
          67 -5.832613524604228E-003
          68 -2.046338097822087E-002
          69 -2.254877054836706E-002
          70 -5.642465154919754E-003
          71 -5.100026516949106E-003
          72  3.099301091851427E-002
          73  2.835513177486486E-002
          74  2.531586265625977E-002
          75  2.640049972666686E-002
          76  1.984142970369875E-002
          77  1.730975323757397E-003
          78  2.960731855724151E-003
          79 -4.548339914486715E-004
          80 -5.030728651360041E-004
          81  1.312116727677702E-002
          82  1.843019770933255E-003
          83  5.521164270577257E-005
          84 -5.367516960167260E-004
          85 -2.293625777376817E-004
          86 -1.442668018194398E-005
          87  7.511334041386456E-006
          88  5.713899059738356E-006
          89 -4.556569074445600E-006
          90 -3.602150307940438E-005
          91 -7.088850783353216E-006
          92 -1.550547832933898E-005
          93  7.850634906269872E-007
Sym=     3a
Ene=  -0.835086503785478     
Spin= Alpha
Occup=     2.00000000
           1 -7.809099601724431E-002
           2  7.169160422997578E-002
           3  2.294233677168295E-002
           4 -1.589656540535194E-002
           5 -0.382555309281572     
           6  1.274889070467440E-002
           7 -2.736546845585081E-002
           8  1.337140022170908E-002
           9 -8.812362750715041E-002
          10 -8.628394811527830E-002
          11  4.532254162485869E-002
          12 -3.463878541421564E-002
          13  0.136448213809884     
          14 -2.950351960632166E-002
          15 -8.682879119981701E-002
          16 -3.788428111818655E-002
          17  0.331372238777422     
          18 -8.387240800946429E-002
          19  4.799213065808248E-002
          20  1.036190405456609E-003
          21  6.660345019970514E-002
          22 -5.005836145599988E-002
          23  4.416515787559859E-002
          24  6.628661921215354E-002
          25 -0.144974691917516     
          26 -0.100690143863732     
          27 -2.259242907480651E-002
          28 -6.348940300670387E-002
          29 -0.486731417097018     
          30  4.308357088436116E-002
          31  1.519192444345203E-002
          32  2.243512891412848E-002
          33 -9.047580320311333E-002
          34  7.194861722121583E-002
          35 -5.921969773124198E-002
          36  1.873277820511213E-003
          37  0.134224252900356     
          38  4.511304045166553E-002
          39  5.477356311606534E-002
          40 -4.378193340742088E-002
          41  3.706815883141831E-002
          42  3.012580316003348E-002
          43  2.072269309762709E-003
          44  1.775244008084863E-004
          45  8.322610424286029E-003
          46  8.011763313459323E-003
          47  5.351282724681325E-003
          48  8.488340602156332E-003
          49  2.084618799719353E-003
          50  3.817553921867182E-003
          51  8.664797893267819E-004
          52 -1.785361128398420E-003
          53  6.360838216631093E-004
          54  7.415624836408353E-004
          55 -1.681473862462627E-004
          56 -7.364544866977312E-004
          57  2.086785692858228E-006
          58  3.328633633064131E-004
          59  3.671454148968268E-004
          60 -2.939750948999085E-004
          61 -3.777643043703582E-004
          62  1.546236964957313E-004
          63  5.082278676202598E-005
          64 -2.882432039379159E-005
          65 -5.433484456702261E-003
          66 -3.705674094758136E-003
          67 -6.244546350318049E-003
          68 -1.111165465755436E-002
          69 -5.574297286304022E-003
          70  3.530799852733643E-002
          71  2.709938101204375E-002
          72  3.957553895101705E-002
          73  1.485491913156566E-002
          74  1.900715033158638E-002
          75 -1.548337857109728E-002
          76 -1.643325101233100E-002
          77 -5.047948399926286E-003
          78 -6.055767728392729E-003
          79 -3.138415998663453E-003
          80  2.518869639556098E-002
          81  2.168552076478047E-002
          82  1.232081522555497E-002
          83  1.968804510388787E-004
          84 -8.093415874230717E-004
          85  6.200239164341437E-004
          86  2.380321071875555E-004
          87 -3.405969598339120E-005
          88  3.597365752063225E-006
          89 -2.108338623000512E-005
          90  9.485013398976605E-005
          91 -1.051058690127436E-005
          92 -4.593214318811813E-005
          93 -6.960716894137386E-007
Sym=     4a
Ene=  -0.813058542082675     
Spin= Alpha
Occup=     2.00000000
           1 -8.867512976139956E-002
           2  5.818592538360586E-002
           3  3.047850152744526E-002
           4 -2.375759821333252E-002
           5 -0.248713168244971     
           6 -8.970874281359603E-002
           7  1.051121099172375E-002
           8 -2.462108753443829E-002
           9  0.119820523928034     
          10 -8.401891081801596E-002
          11 -4.450408802846517E-003
          12 -9.566004787568452E-002
          13  0.326749559284566     
          14  6.906303470264245E-003
          15 -5.789631500312657E-002
          16  5.008774183471860E-002
          17 -5.056005702437862E-002
          18  9.955085018907718E-003
          19  0.293995110430432     
          20  0.227913853191577     
          21 -0.285737517305334     
          22 -2.713674567318671E-003
          23  4.633569823996082E-002
          24 -8.278981927091983E-002
          25 -9.395760315473889E-002
          26  0.100738007620527     
          27 -5.999887627625744E-002
          28 -6.990283366819470E-003
          29  0.235612233579436     
          30  9.203175859681477E-002
          31 -4.130593774086076E-002
          32  1.683729628105678E-002
          33  9.834675800757807E-002
          34 -5.107963260077771E-002
          35  5.406375536886227E-002
          36  3.884508933257161E-003
          37 -6.717898146670578E-002
          38 -1.809648628937540E-002
          39  3.819922990983254E-002
          40  6.303957385890957E-002
          41 -2.639308463090360E-002
          42 -1.636579847556322E-002
          43  1.206524108068793E-002
          44  9.052431003207930E-003
          45 -1.634904305911285E-002
          46 -1.202150036206715E-002
          47 -4.862384073125952E-003
          48 -1.101468251992978E-002
          49 -1.102113226313453E-003
          50 -2.195885893884296E-003
          51  9.850954991492465E-004
          52  2.219940202765091E-003
          53  1.123587407566552E-003
          54  4.387913230736454E-004