[Molden Format]
[Title]
[Atoms] AU
C      1     6 -0.56181929671216E+01 -0.16866624221219E+01  0.17145273758560E+01
C      2     6 -0.49509453477261E+01  0.38162500211470E+00 -0.19447897742888E+00
C      3     6 -0.65042125044657E+01 -0.27594046357970E-01 -0.26064174373560E+01
C      4     6 -0.56082299934930E+01  0.29688830046678E+01  0.92175034915217E+00
C      5     6 -0.21141678104922E+01  0.35892134818944E+00 -0.92900153713501E+00
N      6     7 -0.11615580027606E+01 -0.20291258638598E+01 -0.19749106524602E+01
C      7     6 -0.30499426082128E+00  0.97412012276979E+00  0.12936174845804E+01
N      8     7  0.22232007170944E+01  0.72451243677195E-01  0.51101478222173E+00
C      9     6  0.37213657675061E+01 -0.11208274460738E+01  0.25360728233221E+01
C     10     6  0.60560328036624E+01 -0.24018596611086E+01  0.14418316745913E+01
C     11     6  0.76345695818463E+01 -0.47946083556361E+00 -0.27225107030961E-01
F     12     9  0.85977453874246E+01  0.12585760833099E+01  0.16125726225157E+01
F     13     9  0.96424420961135E+01 -0.16251420156684E+01 -0.11099504163761E+01
C     14     6  0.60521566715833E+01  0.87602032319152E+00 -0.20281047380878E+01
C     15     6  0.37214426947316E+01  0.20305316841920E+01 -0.79682409454411E+00
H     16     1 -0.76249077523490E+01 -0.15819994754452E+01  0.21322114370230E+01
H     17     1 -0.52527819555699E+01 -0.35718809654110E+01  0.97741679472117E+00
H     18     1 -0.46118461011889E+01 -0.14579490519632E+01  0.34910409478486E+01
H     19     1 -0.60866058455671E+01  0.14201591753546E+01 -0.40042246350968E+01
H     20     1 -0.61412554390814E+01 -0.18726850112663E+01 -0.34373915124891E+01
H     21     1 -0.85067071049519E+01  0.73154832811946E-01 -0.21718243813999E+01
H     22     1 -0.50065116453815E+01  0.44855078303246E+01 -0.32685697259332E+00
H     23     1 -0.47399899073167E+01  0.32382781485260E+01  0.27626692351186E+01
H     24     1 -0.76405658040324E+01  0.31201398124057E+01  0.11609589822242E+01
H     25     1 -0.18533620318472E+01  0.18022116565580E+01 -0.23907757359043E+01
H     26     1 -0.19324506168964E+01 -0.35306189163483E+01 -0.10605164622062E+01
H     27     1 -0.15602189369525E+01 -0.22077227969241E+01 -0.38374499894047E+01
H     28     1 -0.88427505469695E+00 -0.61960595647585E-01  0.29758510160348E+01
H     29     1 -0.27823608580921E+00  0.29840543738292E+01  0.17249773194305E+01
H     30     1  0.15426287659873E+01 -0.13416579167995E+01 -0.86233008445288E+00
H     31     1  0.25565833626350E+01 -0.25187885686329E+01  0.35054164021951E+01
H     32     1  0.42905179810487E+01  0.32988597872647E+00  0.38946225103832E+01
H     33     1  0.72054130156524E+01 -0.31815986407074E+01  0.29655608542982E+01
H     34     1  0.55493241330153E+01 -0.39389263871868E+01  0.16448065853342E+00
H     35     1  0.55462685978946E+01 -0.48378973051016E+00 -0.34927049075820E+01
H     36     1  0.71965505725439E+01  0.23586374367219E+01 -0.28902060519217E+01
H     37     1  0.42994364947648E+01  0.34563603262785E+01  0.58441678195680E+00
H     38     1  0.25463365250207E+01  0.29307319639442E+01 -0.22298163585376E+01
[GTO]
           1 0
 s           4   1.00000000000000     
   51.0493630955799      -0.163120632101274     
   8.79112274068875      -0.199110245810007     
  0.706404222589298       0.318820477536558     
  0.269228134134116       0.127065041842404     
 p           4   1.00000000000000     
   5.82636561408000       0.737164515452096     
   1.51068960187200       0.682163716148503     
  0.532564832880000       0.357830539292537     
  0.212023236906000       5.398303027584788E-002
 
           2 0
 s           4   1.00000000000000     
   51.0493630955799      -0.163120632101274     
   8.79112274068875      -0.199110245810007     
  0.706404222589298       0.318820477536558     
  0.269228134134116       0.127065041842404     
 p           4   1.00000000000000     
   5.82636561408000       0.737164515452096     
   1.51068960187200       0.682163716148503     
  0.532564832880000       0.357830539292537     
  0.212023236906000       5.398303027584788E-002
 
           3 0
 s           4   1.00000000000000     
   51.0493630955799      -0.163120632101274     
   8.79112274068875      -0.199110245810007     
  0.706404222589298       0.318820477536558     
  0.269228134134116       0.127065041842404     
 p           4   1.00000000000000     
   5.82636561408000       0.737164515452096     
   1.51068960187200       0.682163716148503     
  0.532564832880000       0.357830539292537     
  0.212023236906000       5.398303027584788E-002
 
           4 0
 s           4   1.00000000000000     
   51.0493630955799      -0.163120632101274     
   8.79112274068875      -0.199110245810007     
  0.706404222589298       0.318820477536558     
  0.269228134134116       0.127065041842404     
 p           4   1.00000000000000     
   5.82636561408000       0.737164515452096     
   1.51068960187200       0.682163716148503     
  0.532564832880000       0.357830539292537     
  0.212023236906000       5.398303027584788E-002
 
           5 0
 s           4   1.00000000000000     
   51.0493630955799      -0.163120632101274     
   8.79112274068875      -0.199110245810007     
  0.706404222589298       0.318820477536558     
  0.269228134134116       0.127065041842404     
 p           4   1.00000000000000     
   5.82636561408000       0.737164515452096     
   1.51068960187200       0.682163716148503     
  0.532564832880000       0.357830539292537     
  0.212023236906000       5.398303027584788E-002
 
           6 0
 s           4   1.00000000000000     
   63.5940244669410      -0.192343884147216     
   10.9514172315237      -0.234781079249537     
  0.879993102573770       0.375937539017009     
  0.335387152965211       0.149828892718628     
 p           4   1.00000000000000     
   7.29650404814951       0.976586663156674     
   1.89187454507126       0.903722267303458     
  0.666944321108241       0.474049584615364     
  0.265522026741309       7.151606771501186E-002
 
           7 0
 s           4   1.00000000000000     
   51.0493630955799      -0.163120632101274     
   8.79112274068875      -0.199110245810007     
  0.706404222589298       0.318820477536558     
  0.269228134134116       0.127065041842404     
 p           4   1.00000000000000     
   5.82636561408000       0.737164515452096     
   1.51068960187200       0.682163716148503     
  0.532564832880000       0.357830539292537     
  0.212023236906000       5.398303027584788E-002
 
           8 0
 s           4   1.00000000000000     
   63.5940244669410      -0.192343884147216     
   10.9514172315237      -0.234781079249537     
  0.879993102573770       0.375937539017009     
  0.335387152965211       0.149828892718628     
 p           4   1.00000000000000     
   7.29650404814951       0.976586663156674     
   1.89187454507126       0.903722267303458     
  0.666944321108241       0.474049584615364     
  0.265522026741309       7.151606771501186E-002
 
           9 0
 s           4   1.00000000000000     
   51.0493630955799      -0.163120632101274     
   8.79112274068875      -0.199110245810007     
  0.706404222589298       0.318820477536558     
  0.269228134134116       0.127065041842404     
 p           4   1.00000000000000     
   5.82636561408000       0.737164515452096     
   1.51068960187200       0.682163716148503     
  0.532564832880000       0.357830539292537     
  0.212023236906000       5.398303027584788E-002
 
          10 0
 s           4   1.00000000000000     
   51.0493630955799      -0.163120632101274     
   8.79112274068875      -0.199110245810007     
  0.706404222589298       0.318820477536558     
  0.269228134134116       0.127065041842404     
 p           4   1.00000000000000     
   5.82636561408000       0.737164515452096     
   1.51068960187200       0.682163716148503     
  0.532564832880000       0.357830539292537     
  0.212023236906000       5.398303027584788E-002
 
          11 0
 s           4   1.00000000000000     
   51.0493630955799      -0.163120632101274     
   8.79112274068875      -0.199110245810007     
  0.706404222589298       0.318820477536558     
  0.269228134134116       0.127065041842404     
 p           4   1.00000000000000     
   5.82636561408000       0.737164515452096     
   1.51068960187200       0.682163716148503     
  0.532564832880000       0.357830539292537     
  0.212023236906000       5.398303027584788E-002
 
          12 0
 s           4   1.00000000000000     
   67.8191594740697      -0.201850789245403     
   11.6790204412661      -0.246385510808000     
  0.938459125048083       0.394518855091218     
  0.357670001280168       0.157234426148285     
 p           4   1.00000000000000     
   9.58240403549692        1.37296780219284     
   2.48457427772447        1.27052889614703     
  0.875889317934415       0.666458841672068     
  0.348706630431394       0.100543312761176     
 
          13 0
 s           4   1.00000000000000     
   67.8191594740697      -0.201850789245403     
   11.6790204412661      -0.246385510808000     
  0.938459125048083       0.394518855091218     
  0.357670001280168       0.157234426148285     
 p           4   1.00000000000000     
   9.58240403549692        1.37296780219284     
   2.48457427772447        1.27052889614703     
  0.875889317934415       0.666458841672068     
  0.348706630431394       0.100543312761176     
 
          14 0
 s           4   1.00000000000000     
   51.0493630955799      -0.163120632101274     
   8.79112274068875      -0.199110245810007     
  0.706404222589298       0.318820477536558     
  0.269228134134116       0.127065041842404     
 p           4   1.00000000000000     
   5.82636561408000       0.737164515452096     
   1.51068960187200       0.682163716148503     
  0.532564832880000       0.357830539292537     
  0.212023236906000       5.398303027584788E-002
 
          15 0
 s           4   1.00000000000000     
   51.0493630955799      -0.163120632101274     
   8.79112274068875      -0.199110245810007     
  0.706404222589298       0.318820477536558     
  0.269228134134116       0.127065041842404     
 p           4   1.00000000000000     
   5.82636561408000       0.737164515452096     
   1.51068960187200       0.682163716148503     
  0.532564832880000       0.357830539292537     
  0.212023236906000       5.398303027584788E-002
 
          16 0
 s           3   1.00000000000000     
   3.37022769753360       0.273591105889083     
  0.613891182214980       0.264605406538605     
  0.166142911484160       8.246594753408230E-002
 
          17 0
 s           3   1.00000000000000     
   3.37022769753360       0.273591105889083     
  0.613891182214980       0.264605406538605     
  0.166142911484160       8.246594753408230E-002
 
          18 0
 s           3   1.00000000000000     
   3.37022769753360       0.273591105889083     
  0.613891182214980       0.264605406538605     
  0.166142911484160       8.246594753408230E-002
 
          19 0
 s           3   1.00000000000000     
   3.37022769753360       0.273591105889083     
  0.613891182214980       0.264605406538605     
  0.166142911484160       8.246594753408230E-002
 
          20 0
 s           3   1.00000000000000     
   3.37022769753360       0.273591105889083     
  0.613891182214980       0.264605406538605     
  0.166142911484160       8.246594753408230E-002
 
          21 0
 s           3   1.00000000000000     
   3.37022769753360       0.273591105889083     
  0.613891182214980       0.264605406538605     
  0.166142911484160       8.246594753408230E-002
 
          22 0
 s           3   1.00000000000000     
   3.37022769753360       0.273591105889083     
  0.613891182214980       0.264605406538605     
  0.166142911484160       8.246594753408230E-002
 
          23 0
 s           3   1.00000000000000     
   3.37022769753360       0.273591105889083     
  0.613891182214980       0.264605406538605     
  0.166142911484160       8.246594753408230E-002
 
          24 0
 s           3   1.00000000000000     
   3.37022769753360       0.273591105889083     
  0.613891182214980       0.264605406538605     
  0.166142911484160       8.246594753408230E-002
 
          25 0
 s           3   1.00000000000000     
   3.37022769753360       0.273591105889083     
  0.613891182214980       0.264605406538605     
  0.166142911484160       8.246594753408230E-002
 
          26 0
 s           3   1.00000000000000     
   3.37022769753360       0.273591105889083     
  0.613891182214980       0.264605406538605     
  0.166142911484160       8.246594753408230E-002
 
          27 0
 s           3   1.00000000000000     
   3.37022769753360       0.273591105889083     
  0.613891182214980       0.264605406538605     
  0.166142911484160       8.246594753408230E-002
 
          28 0
 s           3   1.00000000000000     
   3.37022769753360       0.273591105889083     
  0.613891182214980       0.264605406538605     
  0.166142911484160       8.246594753408230E-002
 
          29 0
 s           3   1.00000000000000     
   3.37022769753360       0.273591105889083     
  0.613891182214980       0.264605406538605     
  0.166142911484160       8.246594753408230E-002
 
          30 0
 s           3   1.00000000000000     
   3.37022769753360       0.273591105889083     
  0.613891182214980       0.264605406538605     
  0.166142911484160       8.246594753408230E-002
 
          31 0
 s           3   1.00000000000000     
   3.37022769753360       0.273591105889083     
  0.613891182214980       0.264605406538605     
  0.166142911484160       8.246594753408230E-002
 
          32 0
 s           3   1.00000000000000     
   3.37022769753360       0.273591105889083     
  0.613891182214980       0.264605406538605     
  0.166142911484160       8.246594753408230E-002
 
          33 0
 s           3   1.00000000000000     
   3.37022769753360       0.273591105889083     
  0.613891182214980       0.264605406538605     
  0.166142911484160       8.246594753408230E-002
 
          34 0
 s           3   1.00000000000000     
   3.37022769753360       0.273591105889083     
  0.613891182214980       0.264605406538605     
  0.166142911484160       8.246594753408230E-002
 
          35 0
 s           3   1.00000000000000     
   3.37022769753360       0.273591105889083     
  0.613891182214980       0.264605406538605     
  0.166142911484160       8.246594753408230E-002
 
          36 0
 s           3   1.00000000000000     
   3.37022769753360       0.273591105889083     
  0.613891182214980       0.264605406538605     
  0.166142911484160       8.246594753408230E-002
 
          37 0
 s           3   1.00000000000000     
   3.37022769753360       0.273591105889083     
  0.613891182214980       0.264605406538605     
  0.166142911484160       8.246594753408230E-002
 
          38 0
 s           3   1.00000000000000     
   3.37022769753360       0.273591105889083     
  0.613891182214980       0.264605406538605     
  0.166142911484160       8.246594753408230E-002
 
[MO]
Sym=     1a
Ene=  -0.958622711645048     
Spin= Alpha
Occup=     2.00000000
           1 -1.432251137774041E-007
           2 -5.216732042491347E-007
           3 -2.594557066423485E-007
           4  2.743000122669908E-007
           5 -1.580486112485628E-006
           6 -4.353883491495393E-006
           7  1.262834045058468E-008
           8  1.518688878504336E-007
           9  1.314334056363268E-007
          10 -3.561969651384770E-007
          11 -5.255146833513894E-008
          12 -2.393244858288822E-007
          13  3.208213366611391E-008
          14 -4.918615194332306E-007
          15  3.537507404767840E-007
          16  1.736651325926320E-007
          17 -6.398881316568431E-005
          18 -5.556098946871541E-005
          19  1.234911093793701E-006
          20 -2.369713515922415E-005
          21 -2.375159398233714E-005
          22 -2.831327072109074E-005
          23 -3.176393485780756E-005
          24 -2.985832287863048E-005
          25 -3.088349933627146E-004
          26 -1.335737501133128E-004
          27  8.320273514703112E-005
          28  7.561056041206104E-005
          29 -3.350789765176471E-004
          30  1.249293818891886E-003
          31  2.293486672598818E-004
          32  2.173370486731763E-004
          33  1.458095939098806E-003
          34  4.642694493073148E-003
          35  1.522084079941361E-003
          36 -1.434068509239360E-003
          37  1.991513960254710E-002
          38  2.233933699640048E-002
          39  1.953964239513602E-002
          40 -9.791626653887962E-003
          41  0.241522692669776     
          42  0.146772794531569     
          43  4.794424283399516E-002
          44  4.507702766975257E-002
          45  0.648821541256344     
          46 -8.025897975730688E-003
          47  1.021490050185286E-002
          48  9.507361800772770E-003
          49  0.523112248534794     
          50  1.433129867874708E-003
          51 -1.113194768252811E-003
          52 -1.115631064957870E-003
          53  1.990688240590067E-002
          54  2.234786735527614E-002
          55 -8.608283695213213E-003
          56  2.003756457007442E-002
          57  1.496142258257509E-003
          58  4.698696302267966E-003
          59 -1.344744064637590E-003
          60  1.602663988873883E-003
          61 -9.634024853715064E-008
          62 -1.200716164805010E-008
          63 -2.231854252100895E-007
          64 -2.642136679094073E-007
          65 -2.655459999382855E-007
          66 -1.579547847411477E-007
          67 -4.125954831105974E-008
          68 -6.358825357548550E-008
          69 -1.355011509079274E-007
          70  5.023477042678333E-008
          71  3.868499375894748E-006
          72  5.694725706199407E-006
          73 -1.143499131819085E-005
          74 -1.600410037700153E-005
          75 -5.745841937727099E-005
          76  2.335753725357029E-004
          77  1.180125153378441E-003
          78 -6.340615686144740E-004
          79  2.848556087113568E-004
          80  2.764730562157519E-004
          81 -6.399831173208029E-004
          82  1.219639796830770E-003
          83  2.423098151161464E-004
Sym=     2a
Ene=  -0.949599103288485     
Spin= Alpha
Occup=     2.00000000
           1 -9.346056108689474E-007
           2 -1.248704148849496E-006
           3 -6.436766909490705E-007
           4  6.052961025658225E-007
           5 -6.541922476145211E-006
           6 -1.043020377733822E-005
           7  1.395694257527526E-007
           8  1.125787716097634E-007
           9  6.429470655547318E-008
          10 -7.359870320081328E-007
          11 -1.037078100631820E-007
          12 -5.267126698059070E-007
          13 -7.931345052050383E-007
          14 -1.164041905890300E-006
          15  8.192311386214242E-007
          16  3.057250234738776E-007
          17 -1.398324539011402E-004
          18 -9.544646265106289E-005
          19  1.041778959200323E-005
          20 -4.840565232656064E-005
          21 -5.820742343335500E-005
          22 -3.811206265961272E-005
          23 -6.059636046329374E-005
          24 -5.888483406747902E-005
          25 -3.839861791121875E-004
          26  7.388947802461422E-005
          27  1.313539936685035E-004
          28  1.255162980189971E-004
          29  2.757183509506767E-003
          30  4.378361120977252E-003
          31  5.839014575330767E-004
          32  5.710939404229479E-004
          33  5.943830235199047E-003
          34  3.859016553141016E-003
          35  2.208902458810146E-003
          36 -1.706253753151642E-003
          37 -6.003896223045795E-004
          38 -7.647225418952680E-003
          39  1.083835295692523E-002
          40  1.257272492845513E-002
          41 -2.556862481876672E-002
          42 -8.443329343114332E-002
          43  0.175559074846696     
          44  0.165737173238214     
          45  0.560233280979400     
          46 -1.603590393139341E-002
          47  2.135433158183099E-002
          48  2.004719968050744E-002
          49 -0.674751552528229     
          50 -3.344787310420660E-003
          51  1.869607340148671E-002
          52  1.772470323894617E-002
          53 -5.378387591516087E-004
          54 -7.596132459315354E-003
          55  1.314111280238974E-002
          56  1.013646168996633E-002
          57  5.982968481628458E-003
          58  3.920261624141877E-003
          59 -1.563769978084407E-003
          60  2.303048107202334E-003
          61 -9.458144815714695E-008
          62  3.885559932482769E-007
          63  5.329756793500118E-007
          64 -2.431256411777430E-007
          65 -1.343468003777966E-007
          66 -2.609925917176434E-007
          67  4.483818288662265E-007
          68  8.310903817632753E-007
          69 -1.693344419663038E-007
          70 -4.434031586002406E-006
          71 -7.356316868055832E-007
          72  3.070624466469036E-006
          73 -4.060413168203228E-005
          74 -3.425965028291681E-005
          75 -1.365766889141409E-005
          76 -9.745701295616354E-005
          77  1.145938789334804E-003
          78  2.925719994604383E-004
          79  5.651582287264585E-004
          80  5.766848829907077E-004
          81  3.079942622796376E-004
          82  1.181776379921858E-003
          83 -8.947423939843294E-005
Sym=     3a
Ene=  -0.862405112724909     
Spin= Alpha
Occup=     2.00000000
           1  2.909729503806348E-004
           2  8.797945747089166E-004
           3  2.229262224739662E-004
           4 -2.578875494124563E-004
           5  1.657216625095793E-003
           6  5.427982535769112E-003
           7 -4.750113527556669E-004
           8  1.420425789506749E-004
           9 -5.865897986716522E-004
          10  1.426427575902285E-004
          11 -1.965657887776196E-005
          12 -3.628291372236935E-006
          13 -3.277025224013699E-004
          14  4.792753632805866E-004
          15 -2.025214090171314E-004
          16 -1.153507424841295E-004
          17  5.442223922100436E-002
          18  4.082236847874170E-002
          19 -4.440301691763711E-003
          20  1.763699027974757E-002
          21  2.919414435869888E-002
          22  1.443404079977859E-002
          23  2.529321731118001E-002
          24  2.170724966065575E-002
          25  0.189147627057015     
          26  0.114270992137328     
          27 -3.892821050521223E-002
          28 -3.974415700694119E-002
          29  0.543040686278833     
          30  3.486993946636416E-002
          31  5.426327356028204E-002
          32  4.504841534898544E-002
          33  0.218345006987967     
          34 -6.075636490063092E-002
          35  6.480850622572785E-002
          36 -0.105864257902104     
          37  6.831951460083681E-002
          38 -3.803970485230646E-002
          39  3.539380797930864E-002
          40 -8.071692424662718E-003
          41  4.752712145021443E-002
          42 -4.624547398907240E-002
          43 -5.845100164894990E-003
          44 -5.601652764974557E-003
          45 -2.947161086407495E-002
          46 -1.030733019429869E-002
          47 -5.366441445082258E-003
          48 -5.070348926476614E-003
          49  5.841589762564220E-003
          50 -5.846718648744960E-003
          51 -1.247895357372033E-003
          52 -1.184997472143009E-003
          53  6.873042779062595E-002
          54 -3.833967176105486E-002
          55 -6.059032300773955E-003
          56  3.597725341674827E-002
          57  0.221314420131918     
          58 -6.207889740904939E-002
          59 -0.102582164792784     
          60  7.052624685882321E-002
          61 -1.392343244343131E-005
          62  6.618224700828180E-005
          63  4.303466387677173E-004
          64 -1.936601207635370E-005
          65 -9.014199917174529E-005
          66  2.563131771229152E-005
          67 -4.628080146863805E-005
          68 -8.937633964972643E-005
          69 -3.323198992537054E-006
          70  1.072286978192569E-002
          71  1.284098370187956E-003
          72 -1.637125963845649E-003
          73  3.438186754063847E-002
          74  3.426298402473001E-002
          75  0.108547904553413     
          76  3.820049710273953E-002
          77  4.173657168624421E-002
          78  6.231581505407694E-003
          79  1.404380262666357E-002
          80  1.413020124610854E-002
          81  6.291650436898229E-003
          82  4.240284203190211E-002
          83  3.900828018504539E-002
Sym=     4a
Ene=  -0.838579822169835     
Spin= Alpha
Occup=     2.00000000
           1  6.594889553285087E-003
           2  6.173239674249807E-003
           3  3.544590274939998E-003
           4 -3.561604782898797E-003
           5  2.990429845015192E-002
           6  3.029312920459014E-002
           7 -2.090943118497200E-003
           8 -9.408063021875089E-004
           9  2.194313217442344E-003
          10  4.136738463885724E-003
          11  1.595884239767005E-004
          12  2.357061651765671E-003
          13  4.808645717248744E-003
          14  5.246100333741698E-003
          15 -4.240675465793911E-003
          16 -1.641487487407281E-003
          17  0.198770492634448     
          18  8.409138126831005E-002
          19 -1.933253281323533E-002
          20  4.534830869123358E-002
          21  0.104536897722016     
          22  6.223200256491264E-003
          23  7.703431824717431E-002
          24  5.657470033057323E-002
          25  0.326148841299300     
          26  4.940864297444290E-002
          27 -5.772174145091362E-002
          28 -8.401905065391441E-002
          29  6.458551654024776E-002
          30 -0.360798849725700     
          31  5.347921265643512E-002
          32 -1.450232562057565E-002
          33 -0.201541812318750     
          34 -6.387873092330247E-002
          35 -1.065351044995062E-002
          36  7.757372003089934E-002
          37 -0.173657234772592     
          38  4.732002746536620E-002
          39 -6.591678657072654E-002
          40  1.728795373215976E-002
          41 -0.133884626897106     
          42  0.112194393281936     
          43  1.769388251494984E-002
          44  1.067788493777119E-002
          45  6.936712122563973E-002
          46  3.223218932168819E-002
          47  1.961941302933484E-002
          48  1.723911833056691E-002
          49  2.166863528539380E-002
          50  2.677546859335333E-002
          51 -5.020463081126115E-004
          52 -1.311012846885009E-003
          53 -0.152550082645980     
          54  3.466597344550889E-002
          55  1.758877332284044E-002
          56 -6.173670250291827E-002
          57 -0.136932973370232     
          58 -8.033980114159392E-002
          59  6.389400553309249E-002
          60 -1.442699961363465E-002
          61  1.268528795417927E-004
          62  1.603380723471469E-003
          63  3.225623420848200E-003
          64  5.204445209409631E-004
          65  5.895491980120480E-004
          66  7.995867757417310E-005
          67  1.033944733019007E-003
          68  1.959393404272405E-003
          69  6.818341797654711E-005
          70  4.230874241605333E-002
          71  1.462423574210986E-002
          72  5.885782089995750E-003
          73  7.106256981786700E-002
          74  6.510955297777764E-002
          75  5.895622214842645E-002
          76 -2.687230121256861E-002
          77 -4.604016604149274E-002
          78 -2.552881482123349E-002
          79 -3.871658506406316E-002
          80 -3.360943657427495E-002
          81 -2.196093013637878E-002
          82 -3.314675305102112E-002
          83 -6.182784205844888E-003
Sym=     5a
Ene=  -0.825770332982672     
Spin= Alpha
Occup=     2.00000000
           1 -9.469159275088995E-004
           2 -5.565694247855956E-004
           3  1.988149211921004E-006
           4 -3.281029070978975E-004
           5  2.852708452666444E-003
           6  2.797076925561063E-003
           7  1.209027039585557E-003
           8 -1.909140048002497E-003
           9  7.758491409067762E-004
          10  8.397909869736614E-004
          11  2.124790267436140E-004
          12  2.705991738452824E-004
          13  9.710678246506218E-004
          14  8.372058893062480E-004
          15 -3.453695789707983E-004
          16 -5.531184247593337E-004
          17  2.611866661945857E-002
          18  1.101167286870208E-002
          19  8.795484841584194E-003
          20 -8.833722680479227E-003
          21  9.002156544644386E-003
          22 -3.379668099500101E-004
          23  1.285224341701409E-002
          24 -3.990118859325479E-003
          25 -3.266084039275460E-002
          26 -1.624960410223001E-002
          27  6.209710501541486E-002
          28 -6.254805862097047E-002
          29 -2.894728344090537E-002
          30  3.839538922183629E-002
          31  0.269990956388770     
          32 -0.310978905648823     
          33 -0.338748679768053     
          34  7.107714319152415E-002
          35  9.967026416700534E-003
          36  4.957712448519036E-002
          37 -0.117885268230344     
          38  6.664723333635700E-002
          39 -2.204490264304246E-002
          40 -3.120230051715238E-002
          41  3.044692687200561E-002
          42 -2.319981073253233E-002
          43  4.590763803900939E-002
          44 -5.522860333671414E-002
          45 -1.388821427606241E-002
          46 -7.478918293978374E-003
          47  7.013234696260639E-003
          48 -1.705349148908028E-002
          49 -7.803092610740382E-003
          50 -7.507757134696437E-003
          51  9.254149382475707E-003
          52 -8.149292063651949E-003
          53  0.183542250745860     
          54 -7.504254901268155E-002
          55  2.354515921579971E-002
          56  4.289951331000100E-002
          57  0.371094502458924     
          58 -3.669031360115477E-002
          59 -6.457752750617508E-002
          60 -1.667877114009655E-002