[Molden Format]
[Title]
[Atoms] AU
C      1     6  0.68593873450257E+01 -0.42844814434068E+01  0.13666011508818E+01
C      2     6  0.53942574522903E+01 -0.18696672738900E+01  0.82854156047270E+00
C      3     6  0.26635440893585E+01 -0.24574226004835E+01  0.16481294897720E-01
N      4     7  0.13316852594488E+01 -0.87436314821767E-01 -0.61110039684535E+00
C      5     6 -0.13974192270218E+01 -0.43533730953213E+00 -0.11090917072514E+01
C      6     6 -0.27532246285874E+01 -0.15588389223452E+00  0.14699368117076E+01
N      7     7 -0.13419402077740E+01  0.18218607560032E+01  0.28060129411253E+01
C      8     6 -0.56461948592996E+01  0.26748937416498E+00  0.12507991605996E+01
C      9     6 -0.68066476703948E+01 -0.19183161901399E+01 -0.24866308003840E+00
C     10     6 -0.63044526521770E+01  0.27715985887662E+01 -0.39026192952643E-01
C     11     6 -0.67577953265715E+01  0.26726684112985E+00  0.39270828911794E+01
C     12     6  0.27318771370451E+01  0.12787034190801E+01 -0.25959249168656E+01
C     13     6  0.54679105074174E+01  0.17554109564468E+01 -0.17226235154730E+01
C     14     6  0.70061583240200E+01  0.30311608553134E+01 -0.37902170570963E+01
O     15     8  0.66380799255743E+01 -0.55636208989524E+00 -0.11224175606024E+01
H     16     1  0.87877662726754E+01 -0.38065059276906E+01  0.18753908649612E+01
H     17     1  0.59959661025879E+01 -0.53235271952225E+01  0.29103191096489E+01
H     18     1  0.69132510306660E+01 -0.54655816846572E+01 -0.31063852824284E+00
H     19     1  0.53331815309224E+01 -0.67590916327473E+00  0.25414994499549E+01
H     20     1  0.27035774093380E+01 -0.36631522424343E+01 -0.16604566316031E+01
H     21     1  0.16654598424905E+01 -0.34264613848640E+01  0.15340882031910E+01
H     22     1  0.11520111321658E+01  0.10595111628780E+01  0.10795264965127E+01
H     23     1 -0.20196146538490E+01  0.10495671259901E+01 -0.23941100712893E+01
H     24     1 -0.17604939221328E+01 -0.22669475485544E+01 -0.19701046190841E+01
H     25     1 -0.24759125687262E+01 -0.19112439470926E+01  0.25339515746621E+01
H     26     1 -0.19958072066355E+01  0.35631409116089E+01  0.23324504612543E+01
H     27     1 -0.14875873706050E+01  0.16406253148856E+01  0.47044015740000E+01
H     28     1 -0.62740392014098E+01 -0.18390374856798E+01 -0.22301194919658E+01
H     29     1 -0.62287958644481E+01 -0.37320064150741E+01  0.52492666086903E+00
H     30     1 -0.88536595646451E+01 -0.18137392436790E+01 -0.14720187358491E+00
H     31     1 -0.55761090807177E+01  0.43916691702707E+01  0.99793612506059E+00
H     32     1 -0.56133785298565E+01  0.28518623637586E+01 -0.19722221342234E+01
H     33     1 -0.83463463753080E+01  0.29679157293004E+01 -0.10950299755886E+00
H     34     1 -0.63392884697885E+01 -0.14966138684860E+01  0.48957924898946E+01
H     35     1 -0.87974819482731E+01  0.47120506051126E+00  0.38364514409065E+01
H     36     1 -0.60264665784321E+01  0.18266295895465E+01  0.50498251150224E+01
H     37     1  0.27556859242460E+01  0.12993217756471E+00 -0.43126581724519E+01
H     38     1  0.17986950842929E+01  0.30738039483188E+01 -0.29860719477836E+01
H     39     1  0.54138040800323E+01  0.29679953717923E+01 -0.22425443203849E-01
H     40     1  0.89306598591312E+01  0.32984849922297E+01 -0.31336857071452E+01
H     41     1  0.62006735645325E+01  0.48559947231311E+01 -0.42686372555440E+01
H     42     1  0.70590240333997E+01  0.18438047884230E+01 -0.54630728565547E+01
[GTO]
           1 0
 s           4   1.00000000000000     
   51.0493630955799      -0.163120632101274     
   8.79112274068875      -0.199110245810007     
  0.706404222589298       0.318820477536558     
  0.269228134134116       0.127065041842404     
 p           4   1.00000000000000     
   5.82636561408000       0.737164515452096     
   1.51068960187200       0.682163716148503     
  0.532564832880000       0.357830539292537     
  0.212023236906000       5.398303027584788E-002
 
           2 0
 s           4   1.00000000000000     
   51.0493630955799      -0.163120632101274     
   8.79112274068875      -0.199110245810007     
  0.706404222589298       0.318820477536558     
  0.269228134134116       0.127065041842404     
 p           4   1.00000000000000     
   5.82636561408000       0.737164515452096     
   1.51068960187200       0.682163716148503     
  0.532564832880000       0.357830539292537     
  0.212023236906000       5.398303027584788E-002
 
           3 0
 s           4   1.00000000000000     
   51.0493630955799      -0.163120632101274     
   8.79112274068875      -0.199110245810007     
  0.706404222589298       0.318820477536558     
  0.269228134134116       0.127065041842404     
 p           4   1.00000000000000     
   5.82636561408000       0.737164515452096     
   1.51068960187200       0.682163716148503     
  0.532564832880000       0.357830539292537     
  0.212023236906000       5.398303027584788E-002
 
           4 0
 s           4   1.00000000000000     
   63.5940244669410      -0.192343884147216     
   10.9514172315237      -0.234781079249537     
  0.879993102573770       0.375937539017009     
  0.335387152965211       0.149828892718628     
 p           4   1.00000000000000     
   7.29650404814951       0.976586663156674     
   1.89187454507126       0.903722267303458     
  0.666944321108241       0.474049584615364     
  0.265522026741309       7.151606771501186E-002
 
           5 0
 s           4   1.00000000000000     
   51.0493630955799      -0.163120632101274     
   8.79112274068875      -0.199110245810007     
  0.706404222589298       0.318820477536558     
  0.269228134134116       0.127065041842404     
 p           4   1.00000000000000     
   5.82636561408000       0.737164515452096     
   1.51068960187200       0.682163716148503     
  0.532564832880000       0.357830539292537     
  0.212023236906000       5.398303027584788E-002
 
           6 0
 s           4   1.00000000000000     
   51.0493630955799      -0.163120632101274     
   8.79112274068875      -0.199110245810007     
  0.706404222589298       0.318820477536558     
  0.269228134134116       0.127065041842404     
 p           4   1.00000000000000     
   5.82636561408000       0.737164515452096     
   1.51068960187200       0.682163716148503     
  0.532564832880000       0.357830539292537     
  0.212023236906000       5.398303027584788E-002
 
           7 0
 s           4   1.00000000000000     
   63.5940244669410      -0.192343884147216     
   10.9514172315237      -0.234781079249537     
  0.879993102573770       0.375937539017009     
  0.335387152965211       0.149828892718628     
 p           4   1.00000000000000     
   7.29650404814951       0.976586663156674     
   1.89187454507126       0.903722267303458     
  0.666944321108241       0.474049584615364     
  0.265522026741309       7.151606771501186E-002
 
           8 0
 s           4   1.00000000000000     
   51.0493630955799      -0.163120632101274     
   8.79112274068875      -0.199110245810007     
  0.706404222589298       0.318820477536558     
  0.269228134134116       0.127065041842404     
 p           4   1.00000000000000     
   5.82636561408000       0.737164515452096     
   1.51068960187200       0.682163716148503     
  0.532564832880000       0.357830539292537     
  0.212023236906000       5.398303027584788E-002
 
           9 0
 s           4   1.00000000000000     
   51.0493630955799      -0.163120632101274     
   8.79112274068875      -0.199110245810007     
  0.706404222589298       0.318820477536558     
  0.269228134134116       0.127065041842404     
 p           4   1.00000000000000     
   5.82636561408000       0.737164515452096     
   1.51068960187200       0.682163716148503     
  0.532564832880000       0.357830539292537     
  0.212023236906000       5.398303027584788E-002
 
          10 0
 s           4   1.00000000000000     
   51.0493630955799      -0.163120632101274     
   8.79112274068875      -0.199110245810007     
  0.706404222589298       0.318820477536558     
  0.269228134134116       0.127065041842404     
 p           4   1.00000000000000     
   5.82636561408000       0.737164515452096     
   1.51068960187200       0.682163716148503     
  0.532564832880000       0.357830539292537     
  0.212023236906000       5.398303027584788E-002
 
          11 0
 s           4   1.00000000000000     
   51.0493630955799      -0.163120632101274     
   8.79112274068875      -0.199110245810007     
  0.706404222589298       0.318820477536558     
  0.269228134134116       0.127065041842404     
 p           4   1.00000000000000     
   5.82636561408000       0.737164515452096     
   1.51068960187200       0.682163716148503     
  0.532564832880000       0.357830539292537     
  0.212023236906000       5.398303027584788E-002
 
          12 0
 s           4   1.00000000000000     
   51.0493630955799      -0.163120632101274     
   8.79112274068875      -0.199110245810007     
  0.706404222589298       0.318820477536558     
  0.269228134134116       0.127065041842404     
 p           4   1.00000000000000     
   5.82636561408000       0.737164515452096     
   1.51068960187200       0.682163716148503     
  0.532564832880000       0.357830539292537     
  0.212023236906000       5.398303027584788E-002
 
          13 0
 s           4   1.00000000000000     
   51.0493630955799      -0.163120632101274     
   8.79112274068875      -0.199110245810007     
  0.706404222589298       0.318820477536558     
  0.269228134134116       0.127065041842404     
 p           4   1.00000000000000     
   5.82636561408000       0.737164515452096     
   1.51068960187200       0.682163716148503     
  0.532564832880000       0.357830539292537     
  0.212023236906000       5.398303027584788E-002
 
          14 0
 s           4   1.00000000000000     
   51.0493630955799      -0.163120632101274     
   8.79112274068875      -0.199110245810007     
  0.706404222589298       0.318820477536558     
  0.269228134134116       0.127065041842404     
 p           4   1.00000000000000     
   5.82636561408000       0.737164515452096     
   1.51068960187200       0.682163716148503     
  0.532564832880000       0.357830539292537     
  0.212023236906000       5.398303027584788E-002
 
          15 0
 s           4   1.00000000000000     
   69.1379619061966      -0.204787563700778     
   11.9061291327073      -0.249970231368273     
  0.956708277443407       0.400258802406396     
  0.364625204960737       0.159522066676936     
 p           4   1.00000000000000     
   8.21241932577816        1.13215567991868     
   2.12935769970981        1.04768407822548     
  0.750664482023609       0.549565082171590     
  0.298852465432831       8.290848659276662E-002
 
          16 0
 s           3   1.00000000000000     
   3.37022769753360       0.273591105889083     
  0.613891182214980       0.264605406538605     
  0.166142911484160       8.246594753408230E-002
 
          17 0
 s           3   1.00000000000000     
   3.37022769753360       0.273591105889083     
  0.613891182214980       0.264605406538605     
  0.166142911484160       8.246594753408230E-002
 
          18 0
 s           3   1.00000000000000     
   3.37022769753360       0.273591105889083     
  0.613891182214980       0.264605406538605     
  0.166142911484160       8.246594753408230E-002
 
          19 0
 s           3   1.00000000000000     
   3.37022769753360       0.273591105889083     
  0.613891182214980       0.264605406538605     
  0.166142911484160       8.246594753408230E-002
 
          20 0
 s           3   1.00000000000000     
   3.37022769753360       0.273591105889083     
  0.613891182214980       0.264605406538605     
  0.166142911484160       8.246594753408230E-002
 
          21 0
 s           3   1.00000000000000     
   3.37022769753360       0.273591105889083     
  0.613891182214980       0.264605406538605     
  0.166142911484160       8.246594753408230E-002
 
          22 0
 s           3   1.00000000000000     
   3.37022769753360       0.273591105889083     
  0.613891182214980       0.264605406538605     
  0.166142911484160       8.246594753408230E-002
 
          23 0
 s           3   1.00000000000000     
   3.37022769753360       0.273591105889083     
  0.613891182214980       0.264605406538605     
  0.166142911484160       8.246594753408230E-002
 
          24 0
 s           3   1.00000000000000     
   3.37022769753360       0.273591105889083     
  0.613891182214980       0.264605406538605     
  0.166142911484160       8.246594753408230E-002
 
          25 0
 s           3   1.00000000000000     
   3.37022769753360       0.273591105889083     
  0.613891182214980       0.264605406538605     
  0.166142911484160       8.246594753408230E-002
 
          26 0
 s           3   1.00000000000000     
   3.37022769753360       0.273591105889083     
  0.613891182214980       0.264605406538605     
  0.166142911484160       8.246594753408230E-002
 
          27 0
 s           3   1.00000000000000     
   3.37022769753360       0.273591105889083     
  0.613891182214980       0.264605406538605     
  0.166142911484160       8.246594753408230E-002
 
          28 0
 s           3   1.00000000000000     
   3.37022769753360       0.273591105889083     
  0.613891182214980       0.264605406538605     
  0.166142911484160       8.246594753408230E-002
 
          29 0
 s           3   1.00000000000000     
   3.37022769753360       0.273591105889083     
  0.613891182214980       0.264605406538605     
  0.166142911484160       8.246594753408230E-002
 
          30 0
 s           3   1.00000000000000     
   3.37022769753360       0.273591105889083     
  0.613891182214980       0.264605406538605     
  0.166142911484160       8.246594753408230E-002
 
          31 0
 s           3   1.00000000000000     
   3.37022769753360       0.273591105889083     
  0.613891182214980       0.264605406538605     
  0.166142911484160       8.246594753408230E-002
 
          32 0
 s           3   1.00000000000000     
   3.37022769753360       0.273591105889083     
  0.613891182214980       0.264605406538605     
  0.166142911484160       8.246594753408230E-002
 
          33 0
 s           3   1.00000000000000     
   3.37022769753360       0.273591105889083     
  0.613891182214980       0.264605406538605     
  0.166142911484160       8.246594753408230E-002
 
          34 0
 s           3   1.00000000000000     
   3.37022769753360       0.273591105889083     
  0.613891182214980       0.264605406538605     
  0.166142911484160       8.246594753408230E-002
 
          35 0
 s           3   1.00000000000000     
   3.37022769753360       0.273591105889083     
  0.613891182214980       0.264605406538605     
  0.166142911484160       8.246594753408230E-002
 
          36 0
 s           3   1.00000000000000     
   3.37022769753360       0.273591105889083     
  0.613891182214980       0.264605406538605     
  0.166142911484160       8.246594753408230E-002
 
          37 0
 s           3   1.00000000000000     
   3.37022769753360       0.273591105889083     
  0.613891182214980       0.264605406538605     
  0.166142911484160       8.246594753408230E-002
 
          38 0
 s           3   1.00000000000000     
   3.37022769753360       0.273591105889083     
  0.613891182214980       0.264605406538605     
  0.166142911484160       8.246594753408230E-002
 
          39 0
 s           3   1.00000000000000     
   3.37022769753360       0.273591105889083     
  0.613891182214980       0.264605406538605     
  0.166142911484160       8.246594753408230E-002
 
          40 0
 s           3   1.00000000000000     
   3.37022769753360       0.273591105889083     
  0.613891182214980       0.264605406538605     
  0.166142911484160       8.246594753408230E-002
 
          41 0
 s           3   1.00000000000000     
   3.37022769753360       0.273591105889083     
  0.613891182214980       0.264605406538605     
  0.166142911484160       8.246594753408230E-002
 
          42 0
 s           3   1.00000000000000     
   3.37022769753360       0.273591105889083     
  0.613891182214980       0.264605406538605     
  0.166142911484160       8.246594753408230E-002
 
[MO]
Sym=     1a
Ene=  -0.850960391223390     
Spin= Alpha
Occup=     2.00000000
           1  5.139058474526999E-003
           2 -5.766168367258390E-003
           3  8.313163848076873E-003
           4 -4.236720836845103E-003
           5  9.912069845949138E-002
           6 -3.150441515389461E-002
           7  3.389764748085811E-002
           8 -4.864357366628911E-002
           9  0.211618823892972     
          10 -4.295309318194260E-002
          11  0.118607062894619     
          12 -3.852113353261873E-002
          13  0.521438913051325     
          14  2.462200401384400E-002
          15 -4.458185449650731E-002
          16 -5.733119174098945E-002
          17  0.179696986694974     
          18  0.116696837109208     
          19  1.164457953571549E-002
          20  2.394365031594382E-002
          21  5.095619681228605E-002
          22  3.535026698075135E-002
          23  2.929756225651146E-003
          24 -2.209637948666292E-002
          25  2.563333470180947E-002
          26  6.128712666977980E-003
          27 -1.917929025074099E-002
          28 -2.542141500926278E-002
          29  1.535382304874812E-003
          30  5.063087053632967E-003
          31 -1.124614481086512E-004
          32 -9.667455178757270E-004
          33 -2.830574627747352E-004
          34  5.347201025302689E-004
          35  1.073745937291169E-004
          36  5.854089962372930E-005
          37  2.495679826119453E-004
          38  8.145430247729339E-004
          39 -3.297763665195259E-004
          40  2.993736613520482E-005
          41 -5.930805311955569E-004
          42  1.303394216839923E-004
          43 -2.202845967623929E-006
          44  2.182973428208317E-006
          45  0.209864385744071     
          46 -4.594762296437233E-002
          47 -7.607365544663289E-002
          48  9.697073307467580E-002
          49  9.863987390861272E-002
          50 -3.301590675496628E-002
          51 -5.631000598867340E-002
          52  1.496883257022988E-002
          53  5.093549202327448E-003
          54 -6.011446350133782E-003
          55 -6.592420672862696E-003
          56  6.259233894586343E-003
          57  0.174628886265227     
          58 -6.239408089675881E-002
          59  9.052669147721409E-003
          60  1.135626971844057E-002
          61 -4.782427574150768E-004
          62  1.440020316679698E-004
          63 -6.400237978934800E-005
          64  1.677578771191957E-002
          65  3.942271577361599E-002
          66  3.557143550688854E-002
          67  0.108465151271952     
          68  3.321827295934486E-002
          69  3.338482509492261E-002
          70  1.038401760663889E-002
          71  1.013230786185024E-003
          72 -1.789462974835402E-003
          73 -5.169070842000625E-005
          74 -2.697551342483861E-005
          75 -1.620905032670848E-005
          76  6.140865626031269E-005
          77  4.127241474837322E-004
          78 -2.016423711191283E-005
          79 -2.271977284995256E-005
          80  1.254704769633856E-005
          81 -8.883787078140783E-005
          82  3.904583960680145E-002
          83  3.522958569181889E-002
          84  1.657192372897831E-002
          85 -4.826627852645199E-004
          86  1.350849546816969E-004
          87 -7.002449483877364E-005
Sym=     2a
Ene=  -0.838492401301614     
Spin= Alpha
Occup=     2.00000000
           1  2.315518629620198E-002
           2 -1.060413729389187E-002
           3  2.412336384146328E-002
           4 -1.219313053013557E-002
           5  0.198998375059319     
           6  3.255992743425924E-002
           7  7.414328657469951E-002
           8 -0.107592431378053     
           9  3.271836806101457E-002
          10  8.595933199176438E-002
          11  6.876614159501368E-003
          12 -8.573709813492900E-004
          13 -0.188364276947523     
          14  0.186155007488715     
          15  7.688549793964454E-003
          16 -3.278510622878189E-003
          17 -0.207142348697897     
          18 -7.664390760971120E-002
          19 -1.786369273895883E-002
          20 -4.028069545648943E-002
          21 -9.161566822755308E-002
          22 -4.443593300785029E-002
          23 -7.161618110116466E-003
          24  3.192917250491641E-002
          25 -4.428922962922740E-002
          26  1.391527736459232E-003
          27  2.930970524853196E-002
          28  3.582465662955434E-002
          29 -9.940063731021546E-003
          30 -1.226304602707180E-002
          31  5.514142570790001E-004
          32  2.093926591901942E-003
          33 -1.372948093720072E-003
          34 -2.234519142262381E-003
          35 -1.042444875371906E-003
          36 -4.523037516270422E-004
          37 -2.113725546306406E-003
          38 -2.355913189584668E-003
          39  1.665423109201434E-003
          40 -4.288505150738455E-004
          41 -1.337794288727602E-004
          42 -1.098649429396237E-003
          43  1.933524735339199E-005
          44  8.368770301539587E-004
          45  4.391013174297353E-002
          46  8.182956395379866E-002
          47 -5.734933759613320E-003
          48  1.077139069523714E-002
          49  0.201875533337950     
          50  2.638496112276356E-002
          51 -0.127417159953679     
          52  3.388978388132463E-002
          53  2.347187660823935E-002
          54 -1.181744710145315E-002
          55 -1.945982120992737E-002
          56  1.865911362257262E-002
          57  0.557748926289973     
          58 -9.824712245906353E-002
          59  2.333687604919117E-002
          60  2.956816894566478E-002
          61  1.353117194619245E-004
          62  1.205111582441666E-003
          63  1.289100937959773E-003
          64  2.543419725478611E-002
          65  5.032093385108386E-003
          66 -7.100041015461262E-003
          67 -5.724183422413080E-002
          68 -4.373412807967392E-002
          69 -4.014176888332736E-002
          70 -1.898214353391463E-002
          71 -5.054942400651221E-003
          72 -4.229594211250519E-004
          73 -6.380417007291164E-004
          74 -2.968593261365862E-004
          75  8.056624386906794E-006
          76 -4.673297911992940E-004
          77 -1.290348850421873E-003
          78 -3.847732103965660E-006
          79 -9.808529929982403E-005
          80 -1.565354863686481E-005
          81 -6.480687872015768E-005
          82  7.106824488485083E-003
          83 -3.468480024384031E-003
          84  2.620231679671624E-002
          85  1.398059200271883E-004
          86  1.257108937303559E-003
          87  1.313343128366120E-003
Sym=     3a
Ene=  -0.817806790971637     
Spin= Alpha
Occup=     2.00000000
           1  1.599539175234910E-002
           2  2.190575436664514E-004
           3  1.531589572168356E-002
           4 -7.546836526315335E-003
           5  6.501400685114864E-002
           6  8.246488828654631E-002
           7  3.442864949202672E-002
           8 -4.690354887636906E-002
           9 -9.062176389621376E-002
          10 -1.574064263732121E-002
          11 -5.418020171042489E-002
          12  3.521252411388893E-002
          13 -9.055858183692424E-002
          14 -0.315013741551723     
          15 -3.489133375904480E-002
          16  0.131343518716369     
          17  0.289539591250595     
          18  6.093496512980278E-003
          19  1.815463554685413E-002
          20  0.101074165237210     
          21  0.251923923288386     
          22  7.454178268943523E-002
          23  2.564387275725754E-002
          24 -5.085633526202316E-002
          25  0.133360228408335     
          26 -2.851710410225955E-002
          27 -7.508943097028604E-002
          28 -7.701979081782233E-002
          29  5.311121885517051E-002
          30  4.313047166733697E-002
          31 -2.201392325143331E-003
          32 -3.983757945697517E-003
          33  1.029205492114806E-002
          34  9.924940282515419E-003
          35  6.002887702564187E-003
          36  3.295609953390975E-003
          37  1.235978588701886E-002
          38  9.324253530773386E-003
          39 -8.576000606384937E-003
          40  3.367730319211056E-003
          41  6.786037369474918E-003
          42  7.140221219479994E-003
          43 -1.166520453476389E-004
          44 -6.337298360859757E-003
          45 -0.254004165949569     
          46  1.376523567321910E-002
          47  5.036808389270390E-002
          48 -7.231215028394809E-002
          49 -1.770668875917074E-003
          50  0.110618937153254     
          51 -5.232920964269581E-002
          52  2.812596391080807E-002
          53  2.446493340330095E-003
          54  9.055983772485732E-003
          55 -6.157074880140869E-003
          56  4.645022338241108E-003
          57  0.368829251341680     
          58  1.630197093032877E-002
          59 -6.817042791982460E-003
          60  2.531607999280594E-002
          61  2.298623937923926E-003
          62  2.492418344509521E-004
          63  1.282552229033496E-003
          64  2.964553013579079E-003
          65 -2.541757516886527E-002
          66  1.028736185164106E-004
          67  3.485839771235384E-002
          68  6.371434363219627E-002
          69  6.299456917246848E-002
          70  5.846303321021213E-002
          71  2.134994801349810E-002
          72  1.201160066616536E-002
          73  3.723744818991577E-003
          74  2.480783355661975E-003
          75  3.484151857390920E-004
          76  3.201427069452390E-003
          77  4.899955887750734E-003
          78  5.141596022735621E-004
          79  1.535565052618289E-003
          80  2.789689122234578E-004
          81  1.768413855523612E-003
          82 -6.087001127121666E-002
          83 -5.366142239771698E-002
          84 -1.294245217576818E-002
          85  1.062918211270233E-003
          86 -2.088311067769776E-003
          87 -1.028519244843223E-003
Sym=     4a
Ene=  -0.811463876383990     
Spin= Alpha
Occup=     2.00000000
           1 -3.941277083471176E-002
           2  2.621123477628114E-002
           3 -2.395901436442031E-002
           4  8.730277656562145E-003
           5 -0.172645586473590     
           6  8.875300906943977E-002
           7  2.763965021459571E-002
           8  1.532433218274846E-002
           9 -0.387045987420213     
          10  2.515630070912338E-002
          11 -7.239718366691814E-002
          12 -2.248733531311887E-002
          13 -7.301431132135944E-003
          14 -9.341509437329479E-002
          15  0.330945810561603     
          16 -0.214483471926401     
          17  8.903645696731677E-002
          18  1.197912663580472E-002
          19  7.730535974872155E-002
          20 -3.169967666748388E-002
          21  2.847756814914483E-002
          22  3.055728152859168E-003
          23  1.893232571962929E-002
          24 -1.455682042451080E-002
          25  2.164442818967048E-002
          26 -5.978825078986985E-003
          27 -2.872988337110808E-003
          28 -1.728817513362260E-002
          29  1.041697809685225E-002
          30  7.044709261765577E-003
          31  1.709127875025342E-003
          32 -1.999719260862464E-003
          33  1.603614051022407E-003
          34  1.370011117994489E-003
          35  1.442922142083964E-003
          36  3.492586898854999E-004
          37  4.461729357088693E-003
          38  2.854637621485501E-003
          39 -2.197889494355274E-003
          40  4.596722145766686E-004
          41  1.103293368970844E-003
          42  1.029300707892645E-003
          43  2.614212595636527E-004
          44 -1.211809121257521E-003
          45  0.288527423164844     
          46 -4.156235336115469E-002
          47  2.067207873860769E-002
          48  4.397325720849708E-002
          49  0.173419317029666     
          50 -3.022633342012087E-002
          51 -2.841908137557274E-002
          52 -2.049636248962487E-002
          53  4.202151131438580E-002
          54 -2.241678707360921E-002
          55 -1.957002678523958E-002
          56  2.243164526960268E-002
          57  9.491239522899922E-002
          58  1.200699641233385E-002
          59  9.620923410307443E-002
          60 -6.356058848267299E-002
          61 -3.849488534276019E-003
          62 -7.647706104103485E-003
          63 -7.488232900785544E-003
          64 -4.400654681352933E-002
          65 -8.923168523502177E-002
          66 -0.116083796065501     
          67  6.290870080401994E-003
          68  5.928864590260131E-002
          69  2.339563072684964E-003
          70 -4.455386946489976E-003
          71  8.584777963062191E-003
          72  6.873097576610335E-005
          73  9.029870691333148E-004
          74  6.157453508460109E-005
          75  8.055997974167687E-005
          76  1.143279811592049E-003
          77  2.877371099865042E-003
          78  1.886359437527939E-004
          79  1.088011841650116E-004
          80  7.817294394105794E-005
          81  3.561774561913564E-004
          82  6.513748380235067E-002
          83  0.101580688564455     
          84  3.726287482981803E-002
          85  4.877822090038034E-003
          86  6.561389691737333E-003
          87  7.190204822440265E-003
Sym=     5a
Ene=  -0.788691455490727     
Spin= Alpha
Occup=     2.00000000
           1  2.124274761506450E-002
           2  4.646749474826015E-003
           3  1.570828364198412E-002
           4 -9.475505590566501E-003
           5  2.336201712049379E-002
           6  9.408288026323139E-002
           7  8.296947616606855E-003
           8 -3.656803340504890E-002
           9 -8.079153698238133E-002
          10 -3.480633833584442E-002
          11 -2.933569632529400E-002
          12 -3.511405826312249E-002
          13  9.013876977755808E-002