[Molden Format]
[Title]
[Atoms] AU
C      1     6  0.36588382555356E+01 -0.23861567690513E+01 -0.31987222552401E+01
C      2     6  0.44580911808136E+01 -0.14988401829400E+01 -0.58320756820601E+00
C      3     6  0.68328772701618E+01  0.16966968523256E+00 -0.81609992101526E+00
O      4     8  0.76426661636932E+01  0.11171674191371E+01  0.15184176788106E+01
C      5     6  0.57781720885254E+01  0.26317295085711E+01  0.26358126376251E+01
C      6     6  0.33853162214346E+01  0.10778850686748E+01  0.30921719900966E+01
N      7     7  0.24487257871679E+01  0.27595991410438E-01  0.67662245349058E+00
C      8     6 -0.48647415361309E-01 -0.11953266962705E+01  0.98999483574543E+00
C      9     6 -0.20615782318368E+01  0.87145363536471E+00  0.49105158687359E+00
N     10     7 -0.99583583376112E+00  0.24472889212203E+01 -0.15258939469971E+01
C     11     6 -0.47451327377424E+01 -0.19823072913747E+00 -0.12501022587392E-01
C     12     6 -0.65693644882915E+01  0.20382255993792E+01 -0.27507750027909E+00
C     13     6 -0.48685561405553E+01 -0.17966411729081E+01 -0.24207515244761E+01
C     14     6 -0.55551453612877E+01 -0.18097170167396E+01  0.22501640789398E+01
H     15     1  0.29898195069444E+01 -0.80853519583620E+00 -0.43337030717464E+01
H     16     1  0.22105897430132E+01 -0.38385910715016E+01 -0.31403217538773E+01
H     17     1  0.52859573455253E+01 -0.32011560711361E+01 -0.41496412291246E+01
H     18     1  0.48793646808019E+01 -0.31111195087461E+01  0.64394467012207E+00
H     19     1  0.83987470234454E+01 -0.95082162294253E+00 -0.15504680563090E+01
H     20     1  0.64423666022509E+01  0.17288446245983E+01 -0.21391752991087E+01
H     21     1  0.53457373381461E+01  0.42712494366144E+01  0.14299566292009E+01
H     22     1  0.65520302947293E+01  0.32967757152354E+01  0.44260973452325E+01
H     23     1  0.19196372948463E+01  0.22511414608702E+01  0.39375499576329E+01
H     24     1  0.38269694619281E+01 -0.49191217366628E+00  0.43604633093943E+01
H     25     1  0.18559497620234E+01  0.15444211467463E+01 -0.56117911963051E+00
H     26     1 -0.24444662206929E+00 -0.26981876018118E+01 -0.39553110631281E+00
H     27     1 -0.23332614195917E+00 -0.19950165346344E+01  0.28752880151777E+01
H     28     1 -0.21929030115531E+01  0.20674931980168E+01  0.21770915027643E+01
H     29     1 -0.16924684195101E+01  0.42285178976444E+01 -0.14736526139761E+01
H     30     1 -0.14117901820504E+01  0.17099268355422E+01 -0.32486565340022E+01
H     31     1 -0.61120925781444E+01  0.31997737320383E+01 -0.19087230712132E+01
H     32     1 -0.65303951284076E+01  0.32193162575713E+01  0.14067567992381E+01
H     33     1 -0.84869012595647E+01  0.13506130975233E+01 -0.52062434596560E+00
H     34     1 -0.36908912464031E+01 -0.34757249895512E+01 -0.22976827655868E+01
H     35     1 -0.43300306476621E+01 -0.72577079774415E+00 -0.40922853299668E+01
H     36     1 -0.68016305561236E+01 -0.24264844304958E+01 -0.27032075766953E+01
H     37     1 -0.53396066515216E+01 -0.77104202947022E+00  0.40098667173290E+01
H     38     1 -0.44679291153821E+01 -0.35477979052254E+01  0.23664949809609E+01
H     39     1 -0.75331842517984E+01 -0.23220167315808E+01  0.20593604236823E+01
[GTO]
           1 0
 s           4   1.00000000000000     
   51.0493630955799      -0.163120632101274     
   8.79112274068875      -0.199110245810007     
  0.706404222589298       0.318820477536558     
  0.269228134134116       0.127065041842404     
 p           4   1.00000000000000     
   5.82636561408000       0.737164515452096     
   1.51068960187200       0.682163716148503     
  0.532564832880000       0.357830539292537     
  0.212023236906000       5.398303027584788E-002
 
           2 0
 s           4   1.00000000000000     
   51.0493630955799      -0.163120632101274     
   8.79112274068875      -0.199110245810007     
  0.706404222589298       0.318820477536558     
  0.269228134134116       0.127065041842404     
 p           4   1.00000000000000     
   5.82636561408000       0.737164515452096     
   1.51068960187200       0.682163716148503     
  0.532564832880000       0.357830539292537     
  0.212023236906000       5.398303027584788E-002
 
           3 0
 s           4   1.00000000000000     
   51.0493630955799      -0.163120632101274     
   8.79112274068875      -0.199110245810007     
  0.706404222589298       0.318820477536558     
  0.269228134134116       0.127065041842404     
 p           4   1.00000000000000     
   5.82636561408000       0.737164515452096     
   1.51068960187200       0.682163716148503     
  0.532564832880000       0.357830539292537     
  0.212023236906000       5.398303027584788E-002
 
           4 0
 s           4   1.00000000000000     
   69.1379619061966      -0.204787563700778     
   11.9061291327073      -0.249970231368273     
  0.956708277443407       0.400258802406396     
  0.364625204960737       0.159522066676936     
 p           4   1.00000000000000     
   8.21241932577816        1.13215567991868     
   2.12935769970981        1.04768407822548     
  0.750664482023609       0.549565082171590     
  0.298852465432831       8.290848659276662E-002
 
           5 0
 s           4   1.00000000000000     
   51.0493630955799      -0.163120632101274     
   8.79112274068875      -0.199110245810007     
  0.706404222589298       0.318820477536558     
  0.269228134134116       0.127065041842404     
 p           4   1.00000000000000     
   5.82636561408000       0.737164515452096     
   1.51068960187200       0.682163716148503     
  0.532564832880000       0.357830539292537     
  0.212023236906000       5.398303027584788E-002
 
           6 0
 s           4   1.00000000000000     
   51.0493630955799      -0.163120632101274     
   8.79112274068875      -0.199110245810007     
  0.706404222589298       0.318820477536558     
  0.269228134134116       0.127065041842404     
 p           4   1.00000000000000     
   5.82636561408000       0.737164515452096     
   1.51068960187200       0.682163716148503     
  0.532564832880000       0.357830539292537     
  0.212023236906000       5.398303027584788E-002
 
           7 0
 s           4   1.00000000000000     
   63.5940244669410      -0.192343884147216     
   10.9514172315237      -0.234781079249537     
  0.879993102573770       0.375937539017009     
  0.335387152965211       0.149828892718628     
 p           4   1.00000000000000     
   7.29650404814951       0.976586663156674     
   1.89187454507126       0.903722267303458     
  0.666944321108241       0.474049584615364     
  0.265522026741309       7.151606771501186E-002
 
           8 0
 s           4   1.00000000000000     
   51.0493630955799      -0.163120632101274     
   8.79112274068875      -0.199110245810007     
  0.706404222589298       0.318820477536558     
  0.269228134134116       0.127065041842404     
 p           4   1.00000000000000     
   5.82636561408000       0.737164515452096     
   1.51068960187200       0.682163716148503     
  0.532564832880000       0.357830539292537     
  0.212023236906000       5.398303027584788E-002
 
           9 0
 s           4   1.00000000000000     
   51.0493630955799      -0.163120632101274     
   8.79112274068875      -0.199110245810007     
  0.706404222589298       0.318820477536558     
  0.269228134134116       0.127065041842404     
 p           4   1.00000000000000     
   5.82636561408000       0.737164515452096     
   1.51068960187200       0.682163716148503     
  0.532564832880000       0.357830539292537     
  0.212023236906000       5.398303027584788E-002
 
          10 0
 s           4   1.00000000000000     
   63.5940244669410      -0.192343884147216     
   10.9514172315237      -0.234781079249537     
  0.879993102573770       0.375937539017009     
  0.335387152965211       0.149828892718628     
 p           4   1.00000000000000     
   7.29650404814951       0.976586663156674     
   1.89187454507126       0.903722267303458     
  0.666944321108241       0.474049584615364     
  0.265522026741309       7.151606771501186E-002
 
          11 0
 s           4   1.00000000000000     
   51.0493630955799      -0.163120632101274     
   8.79112274068875      -0.199110245810007     
  0.706404222589298       0.318820477536558     
  0.269228134134116       0.127065041842404     
 p           4   1.00000000000000     
   5.82636561408000       0.737164515452096     
   1.51068960187200       0.682163716148503     
  0.532564832880000       0.357830539292537     
  0.212023236906000       5.398303027584788E-002
 
          12 0
 s           4   1.00000000000000     
   51.0493630955799      -0.163120632101274     
   8.79112274068875      -0.199110245810007     
  0.706404222589298       0.318820477536558     
  0.269228134134116       0.127065041842404     
 p           4   1.00000000000000     
   5.82636561408000       0.737164515452096     
   1.51068960187200       0.682163716148503     
  0.532564832880000       0.357830539292537     
  0.212023236906000       5.398303027584788E-002
 
          13 0
 s           4   1.00000000000000     
   51.0493630955799      -0.163120632101274     
   8.79112274068875      -0.199110245810007     
  0.706404222589298       0.318820477536558     
  0.269228134134116       0.127065041842404     
 p           4   1.00000000000000     
   5.82636561408000       0.737164515452096     
   1.51068960187200       0.682163716148503     
  0.532564832880000       0.357830539292537     
  0.212023236906000       5.398303027584788E-002
 
          14 0
 s           4   1.00000000000000     
   51.0493630955799      -0.163120632101274     
   8.79112274068875      -0.199110245810007     
  0.706404222589298       0.318820477536558     
  0.269228134134116       0.127065041842404     
 p           4   1.00000000000000     
   5.82636561408000       0.737164515452096     
   1.51068960187200       0.682163716148503     
  0.532564832880000       0.357830539292537     
  0.212023236906000       5.398303027584788E-002
 
          15 0
 s           3   1.00000000000000     
   3.37022769753360       0.273591105889083     
  0.613891182214980       0.264605406538605     
  0.166142911484160       8.246594753408230E-002
 
          16 0
 s           3   1.00000000000000     
   3.37022769753360       0.273591105889083     
  0.613891182214980       0.264605406538605     
  0.166142911484160       8.246594753408230E-002
 
          17 0
 s           3   1.00000000000000     
   3.37022769753360       0.273591105889083     
  0.613891182214980       0.264605406538605     
  0.166142911484160       8.246594753408230E-002
 
          18 0
 s           3   1.00000000000000     
   3.37022769753360       0.273591105889083     
  0.613891182214980       0.264605406538605     
  0.166142911484160       8.246594753408230E-002
 
          19 0
 s           3   1.00000000000000     
   3.37022769753360       0.273591105889083     
  0.613891182214980       0.264605406538605     
  0.166142911484160       8.246594753408230E-002
 
          20 0
 s           3   1.00000000000000     
   3.37022769753360       0.273591105889083     
  0.613891182214980       0.264605406538605     
  0.166142911484160       8.246594753408230E-002
 
          21 0
 s           3   1.00000000000000     
   3.37022769753360       0.273591105889083     
  0.613891182214980       0.264605406538605     
  0.166142911484160       8.246594753408230E-002
 
          22 0
 s           3   1.00000000000000     
   3.37022769753360       0.273591105889083     
  0.613891182214980       0.264605406538605     
  0.166142911484160       8.246594753408230E-002
 
          23 0
 s           3   1.00000000000000     
   3.37022769753360       0.273591105889083     
  0.613891182214980       0.264605406538605     
  0.166142911484160       8.246594753408230E-002
 
          24 0
 s           3   1.00000000000000     
   3.37022769753360       0.273591105889083     
  0.613891182214980       0.264605406538605     
  0.166142911484160       8.246594753408230E-002
 
          25 0
 s           3   1.00000000000000     
   3.37022769753360       0.273591105889083     
  0.613891182214980       0.264605406538605     
  0.166142911484160       8.246594753408230E-002
 
          26 0
 s           3   1.00000000000000     
   3.37022769753360       0.273591105889083     
  0.613891182214980       0.264605406538605     
  0.166142911484160       8.246594753408230E-002
 
          27 0
 s           3   1.00000000000000     
   3.37022769753360       0.273591105889083     
  0.613891182214980       0.264605406538605     
  0.166142911484160       8.246594753408230E-002
 
          28 0
 s           3   1.00000000000000     
   3.37022769753360       0.273591105889083     
  0.613891182214980       0.264605406538605     
  0.166142911484160       8.246594753408230E-002
 
          29 0
 s           3   1.00000000000000     
   3.37022769753360       0.273591105889083     
  0.613891182214980       0.264605406538605     
  0.166142911484160       8.246594753408230E-002
 
          30 0
 s           3   1.00000000000000     
   3.37022769753360       0.273591105889083     
  0.613891182214980       0.264605406538605     
  0.166142911484160       8.246594753408230E-002
 
          31 0
 s           3   1.00000000000000     
   3.37022769753360       0.273591105889083     
  0.613891182214980       0.264605406538605     
  0.166142911484160       8.246594753408230E-002
 
          32 0
 s           3   1.00000000000000     
   3.37022769753360       0.273591105889083     
  0.613891182214980       0.264605406538605     
  0.166142911484160       8.246594753408230E-002
 
          33 0
 s           3   1.00000000000000     
   3.37022769753360       0.273591105889083     
  0.613891182214980       0.264605406538605     
  0.166142911484160       8.246594753408230E-002
 
          34 0
 s           3   1.00000000000000     
   3.37022769753360       0.273591105889083     
  0.613891182214980       0.264605406538605     
  0.166142911484160       8.246594753408230E-002
 
          35 0
 s           3   1.00000000000000     
   3.37022769753360       0.273591105889083     
  0.613891182214980       0.264605406538605     
  0.166142911484160       8.246594753408230E-002
 
          36 0
 s           3   1.00000000000000     
   3.37022769753360       0.273591105889083     
  0.613891182214980       0.264605406538605     
  0.166142911484160       8.246594753408230E-002
 
          37 0
 s           3   1.00000000000000     
   3.37022769753360       0.273591105889083     
  0.613891182214980       0.264605406538605     
  0.166142911484160       8.246594753408230E-002
 
          38 0
 s           3   1.00000000000000     
   3.37022769753360       0.273591105889083     
  0.613891182214980       0.264605406538605     
  0.166142911484160       8.246594753408230E-002
 
          39 0
 s           3   1.00000000000000     
   3.37022769753360       0.273591105889083     
  0.613891182214980       0.264605406538605     
  0.166142911484160       8.246594753408230E-002
 
[MO]
Sym=     1a
Ene=  -0.853620734769168     
Spin= Alpha
Occup=     2.00000000
           1 -2.927527845631776E-002
           2 -4.442042550796308E-004
           3 -1.574103344344090E-002
           4 -3.008206647537702E-002
           5 -0.202733689670037     
           6  5.093733701646823E-002
           7 -7.977673610617160E-002
           8 -6.460115359365196E-002
           9 -0.147904372407635     
          10  3.512958604520375E-002
          11 -1.847798008310689E-002
          12 -8.742508487444030E-002
          13 -0.329028263147402     
          14  9.205224725228701E-002
          15  5.559238887445923E-003
          16  2.094566314588437E-002
          17 -0.154614287189799     
          18 -5.705546744632068E-003
          19  8.400685689079497E-002
          20  5.293777033275671E-002
          21 -0.221514300114580     
          22  1.412239706309486E-003
          23  4.324336720810621E-002
          24  0.116253944005812     
          25 -0.442360419404076     
          26 -6.934893711743673E-002
          27  2.343774411050859E-002
          28 -5.585196459287926E-002
          29 -0.126502919761527     
          30 -8.305424841880707E-002
          31 -4.088346710672561E-002
          32  4.104333404762313E-003
          33 -3.247620525763231E-002
          34 -2.788872670478832E-002
          35  7.081578860268755E-003
          36 -4.013209738544472E-004
          37 -1.639299930954801E-002
          38 -9.330685665519855E-003
          39  1.415250103958028E-002
          40 -1.405886143936691E-002
          41 -2.756300112173322E-004
          42 -2.951519758673029E-003
          43 -3.122354669772939E-004
          44 -1.881039443554401E-004
          45  4.845913337276552E-004
          46  1.386916331075668E-005
          47 -7.548457686629065E-005
          48  4.413210430383309E-006
          49  6.553026284086835E-006
          50 -4.125309797290701E-004
          51 -1.215091683377842E-004
          52 -1.190724089819838E-004
          53  3.583320901754750E-004
          54 -2.075446632349370E-004
          55 -7.386577895933522E-005
          56 -2.216839635596796E-005
          57 -6.322044491317538E-003
          58 -4.900131412613048E-003
          59 -2.136025975603546E-003
          60 -3.944499010230929E-002
          61 -9.948748103474344E-003
          62 -2.042505403198681E-002
          63 -2.178493359623373E-002
          64 -1.088180200642320E-002
          65 -3.597999469484380E-002
          66 -4.182065058847535E-002
          67 -8.853736822248456E-002
          68 -2.125913644995834E-002
          69 -2.444018558830014E-002
          70 -6.904224903853913E-003
          71  1.558442854918870E-003
          72 -2.211402987990645E-004
          73  7.361339654180485E-005
          74  2.249882662600505E-005
          75 -8.587662028989477E-006
          76 -2.097229404352014E-004
          77 -2.178415213457246E-005
          78  1.514560291710325E-005
          79  4.337272635113309E-005
          80  9.608874351362134E-005
          81  1.129851269620798E-005
Sym=     2a
Ene=  -0.844349145887041     
Spin= Alpha
Occup=     2.00000000
           1  2.165110837459533E-002
           2 -7.356669608572021E-003
           3  6.034400150778852E-003
           4  1.559306747144443E-002
           5  4.344950548542537E-002
           6 -8.682418285168580E-002
           7 -3.739226215466541E-003
           8  1.005823842887174E-002
           9 -0.160301697230009     
          10 -2.805644544154123E-002
          11 -4.956835891208615E-002
          12 -0.117427710260572     
          13 -0.536144638489637     
          14  8.227938026074695E-002
          15 -6.279448028123854E-003
          16  2.677132068922678E-002
          17 -0.164792400281558     
          18 -8.465517080509798E-002
          19  7.925254393202437E-002
          20  6.230995207493715E-002
          21  5.240769867846705E-002
          22 -8.464731628446699E-002
          23 -4.018068557148816E-002
          24 -3.952959917891934E-002
          25  0.326454099600133     
          26 -0.120215458590949     
          27 -5.166132132824792E-002
          28  2.183600106337783E-002
          29  0.210724455795163     
          30  8.594651997267901E-002
          31  6.201711601264738E-002
          32 -1.604406673729477E-002
          33  7.936503698762661E-002
          34  5.090065330936460E-002
          35 -1.676950038430858E-002
          36 -2.121644292863488E-003
          37  3.821757555188765E-002
          38  1.023015032890323E-002
          39 -3.005144253436668E-002
          40  2.860718392271370E-002
          41  6.509286586492626E-003
          42  9.808929215898701E-003
          43  1.118146635080386E-003
          44  8.235405998199831E-004
          45 -2.697479888510764E-004
          46  7.769623005897154E-004
          47 -2.452972900834841E-004
          48  7.029492421809991E-005
          49  1.359949118499179E-003
          50  1.606379874789551E-003
          51  8.319844565665026E-004
          52  1.166257074792201E-003
          53  6.370093206578332E-004
          54  1.459940827516864E-003
          55  6.631735509159008E-004
          56 -6.202374666414396E-004
          57  5.176059686005847E-003
          58  6.437229051972805E-003
          59  1.077860371944871E-003
          60  1.068461734545460E-002
          61 -1.307449718587667E-002
          62 -1.641903739471667E-002
          63 -1.712950831456648E-002
          64 -1.433221706203004E-002
          65  2.177000509945437E-002
          66  1.243224709072530E-002
          67  8.000878151272120E-002
          68  4.134446778617098E-002
          69  4.091726260519740E-002
          70  1.637862566109924E-002
          71 -6.268383452078035E-004
          72  3.579404329203424E-003
          73 -2.290747081302004E-005
          74  3.220402335590102E-005
          75  1.429390276240066E-005
          76  9.852774959390044E-004
          77  3.210291720915621E-004
          78 -1.577165150277863E-005
          79  1.332003564408629E-004
          80  3.595991847695783E-004
          81 -1.745627804126688E-005
Sym=     3a
Ene=  -0.821328252203574     
Spin= Alpha
Occup=     2.00000000
           1 -0.103821652195645     
           2 -1.776669021046899E-002
           3 -3.291449074639176E-002
           4 -6.817809196094746E-002
           5 -0.348556323301996     
           6  3.666953726043429E-002
           7 -6.915035300024817E-002
           8 -1.783775638110573E-002
           9 -7.817930201580126E-002
          10  0.106343477041162     
          11  6.706740825268491E-002
          12  4.167560784447013E-002
          13  0.274303813526577     
          14  1.432289786616115E-002
          15  4.075441650742577E-002
          16  2.823377363832826E-002
          17  6.651874470973454E-002
          18  6.531768994203499E-002
          19 -1.980094986909146E-002
          20 -1.676228200453515E-002
          21  4.188225954477172E-003
          22 -5.117216321746961E-002
          23  2.071448681897242E-002
          24  2.641591706118695E-002
          25 -4.895835683127375E-002
          26 -0.339025588789876     
          27  7.853027555529607E-002
          28  0.106799395332287     
          29  0.273477765887875     
          30 -7.113371490327776E-003
          31  0.101044674110451     
          32 -5.205045524937130E-003
          33  0.220344686365452     
          34  8.326254010550235E-002
          35 -2.667079867148424E-002
          36 -1.207086357590994E-002
          37  0.111701601354646     
          38 -5.300139107288705E-003
          39 -6.683395452363687E-002
          40  7.027378885674498E-002
          41  4.255288532485049E-002
          42  3.576402434344880E-002
          43  7.059687123975427E-003
          44  3.696486582372534E-003
          45  4.914603604999609E-003
          46  6.788036304033807E-003
          47 -3.048295248730219E-003
          48  7.343137525618326E-004
          49  9.551519647225870E-003
          50  6.131667480717693E-003
          51  5.146978335441631E-003
          52  6.841956598057601E-003
          53  8.166248559333881E-003
          54  7.445470010621320E-003
          55  4.493555223399661E-003
          56 -4.672587128132107E-003
          57 -2.240903751856625E-002
          58 -1.571447926417254E-002
          59 -1.797909831726961E-002
          60 -8.137774137619480E-002
          61 -1.844841493933230E-002
          62 -2.757263084648611E-002
          63  6.470644304327157E-003
          64  1.229715544137123E-002
          65  2.803608092943637E-002
          66 -3.226756447682936E-003
          67  3.133775975162618E-002
          68  4.988591012193213E-002
          69  6.442874727906216E-002
          70  5.285845320763657E-002
          71  9.368676360149920E-003
          72  1.608565805128140E-002
          73  1.260989571680935E-003
          74  1.156031595121488E-003
          75  1.825221843159482E-004
          76  3.720006230740014E-003
          77  2.521835391467870E-003
          78  3.618973201297251E-004
          79  1.956777507491883E-003
          80  3.071682499478179E-003
          81  2.339995702211637E-004
Sym=     4a
Ene=  -0.816815397928764     
Spin= Alpha
Occup=     2.00000000
           1 -0.116916065115586     
           2 -1.363247380002147E-003
           3 -2.879532404587088E-002
           4 -6.539917965419616E-002
           5 -0.217745027901688     
           6  5.046098960258039E-002
           7 -1.290019361619572E-003
           8  5.479879592001730E-002
           9 -0.141778521677623     
          10  2.904210613871700E-003
          11  1.017089772553594E-002
          12 -3.346017035282665E-002
          13 -0.177711012109633     
          14 -4.283867880166780E-002
          15  4.058190255072903E-002
          16  7.638486839330935E-002
          17  0.146379218228722     
          18 -0.109869285833619     
          19 -3.806826052652223E-002
          20  2.328339569411463E-002
          21  0.390516276485046     
          22 -8.234873495530022E-003
          23  3.740971369025158E-003
          24 -8.319465550671026E-002
          25  1.116398124997673E-002
          26  0.116059768258345     
          27  0.208088083638740     
          28  0.302215118621353     
          29 -0.171625447043201     
          30 -1.605939732053199E-002
          31 -6.166092709846967E-003
          32  7.924418986686224E-002
          33 -0.109676089756412     
          34 -3.685453415850285E-002
          35  2.081724514935965E-002
          36  2.343941032805703E-002
          37 -6.611394008796248E-002
          38  2.113379746677173E-003
          39  4.296388886409729E-002
          40 -3.052461036071953E-002
          41 -2.671635212509755E-002
          42 -2.064368442115284E-002
          43 -3.068188563270698E-003
          44 -1.173267607973357E-005
          45 -3.260157111483592E-003
          46 -4.092583700224074E-003
          47  2.083674934053077E-003
          48 -1.823921815136077E-004
          49 -8.064524681344406E-003
          50 -4.767547134999427E-003
          51 -3.415600322210443E-003
          52 -4.797747307362296E-003
          53 -4.649320700607836E-003
          54 -3.982393218717229E-003
          55 -2.382616915010792E-003
          56  3.173516191688123E-003
          57 -2.974872420641801E-002
          58 -2.934591108655717E-002
          59 -1.873330119793064E-002
          60 -4.667588368984207E-002
          61 -3.155544509101740E-002
          62 -2.782718452220734E-002
          63  3.902205191070222E-002
          64  3.268297958883210E-002
          65  0.106606866119697     
          66  9.254089090422911E-002
          67 -2.821862577719194E-002
          68 -7.284747284123332E-002
          69 -1.983513286763143E-002
          70 -1.572916252948026E-002
          71 -4.273699453825898E-003
          72 -1.537532646470193E-002
          73 -9.077369375891003E-004
          74 -6.345328989304063E-004
          75 -1.598883960720173E-004
          76 -4.191543128484887E-003
          77 -2.172499980037743E-003
          78 -3.167452969452836E-004
          79 -8.444919172791309E-004
          80 -1.932650478491116E-003
          81 -1.791473428958968E-004
Sym=     5a
Ene=  -0.790391360578314     
Spin= Alpha
Occup=     2.00000000
           1  5.690446255179758E-002
           2  2.364244688965248E-002
           3  1.936427088679022E-002
           4  1.722421140621665E-002
           5  0.105656010838379     
           6  7.716583519175386E-002
           7  4.378250543785386E-002
           8 -4.917744146431505E-002
           9  9.147771179943712E-002
          10 -7.538507435631969E-002
          11 -3.628766175509397E-002
          12 -3.457772901399112E-002
          13 -0.170815950137942     
          14 -6.238655450028299E-002
          15 -1.093214695901436E-002
          16 -1.789093797885696E-002
          17  7.570058700285628E-002
          18 -8.634666854570842E-002
          19 -3.874224284063036E-003
          20  7.403902152294885E-003
          21  8.952784971352490E-002
          22  5.887809596461879E-002
          23  6.976024063749438E-002
          24 -1.002567046639899E-002
          25 -0.125886493926838     
          26  0.149010688566970     
          27  0.171171019394908     
          28 -6.134660456514603E-002
          29 -0.110027999426155     
          30 -0.175657596574780     
          31  5.945385892538833E-002
          32 -3.442888484015597E-002
          33  0.366997502567652     
          34 -1.109403060520155E-002
          35  5.921253087539477E-002
          36 -9.136160341378260E-002
          37  0.310262216728671     
          38 -7.524160177903323E-002
          39 -9.325991662158598E-002
          40  0.109556054440354     
          41  0.175968876988189     
          42  7.423524568083338E-002
          43  3.733583414483160E-002
          44 -1.023958433905073E-003
          45  5.078880350304121E-002
          46  3.704712267574146E-002
          47 -2.052409733220540E-002
          48  2.712342755773630E-003
          49  5.001929627882432E-002
          50  1.489169875107170E-002
          51  2.601122428422287E-002
          52  2.779102375014521E-002
          53  3.705639576967570E-002
          54  1.748519065522439E-002
          55  2.031232030689776E-002
          56 -2.200285627474994E-002
          57  1.943338550122354E-002
          58  3.722417149653438E-003
          59  1.868701849000176E-002
          60  1.275708971818153E-002
          61  2.285859261720899E-002
          62  3.833049436933755E-002
          63  3.408000632385877E-002
          64  1.701213430659469E-002
          65  3.192799478948934E-002
          66  7.937068283329641E-003
          67  5.002943927423765E-002
          68 -3.488849421197916E-002